ITEM: TIMESTEP
0
ITEM: NUMBER OF ENTRIES
386
ITEM: BOX BOUNDS pp pp pp
-15.5322 15.5322
-15.5322 15.5322
-0.5 0.5
ITEM: ENTRIES index c_1[1] c_1[2] c_1[3] c_1[4] 
1 1 -15.9345 -14.6167 0 
2 1 -16.5262 -15.4229 0 
3 1 -16.1239 -16.3384 0 
4 1 -15.1299 -16.4477 0 
5 1 -14.5382 -15.6415 0 
6 1 -14.9405 -14.726 0 
7 1 -12.1571 -16.1863 0 
8 1 -11.7717 -15.2635 0 
9 1 -12.6945 -14.8781 0 
10 1 -13.0799 -15.8009 0 
11 1 -9.80836 -15.2253 0 
12 1 -9.3406 -16.1092 0 
13 1 -8.80903 -15.2621 0 
14 1 -5.42394 -15.2141 0 
15 1 -6.27158 -14.6836 0 
16 1 -7.03811 -15.3258 0 
17 1 -6.66422 -16.2532 0 
18 1 -5.6666 -16.1843 0 
19 1 -3.90072 -14.9246 0 
20 1 -4.02974 -15.9163 0 
21 1 -3.23546 -16.5238 0 
22 1 -2.31216 -16.1398 0 
23 1 -2.18314 -15.1481 0 
24 1 -2.97742 -14.5406 0 
25 1 -0.76515 -15.9039 0 
26 1 0.117052 -16.3748 0 
27 1 0.837492 -15.6812 0 
28 1 0.400546 -14.7818 0 
29 1 -0.589941 -14.9194 0 
30 1 2.37618 -15.9685 0 
31 1 3.29568 -16.3615 0 
32 1 3.95366 -15.6085 0 
33 1 3.44081 -14.75 0 
34 1 2.46587 -14.9725 0 
35 1 5.71566 -15.5848 0 
36 1 6.71012 -15.4796 0 
37 1 10.1354 -16.1101 0 
38 1 10.2279 -15.1144 0 
39 1 9.41181 -14.5365 0 
40 1 8.50325 -14.9543 0 
41 1 8.41078 -15.95 0 
42 1 9.22685 -16.5279 0 
43 1 12.1345 -15.9386 0 
44 1 12.7171 -15.1258 0 
45 1 -15.2552 -11.7752 0 
46 1 -16.1828 -12.1488 0 
47 1 -15.8092 -13.0764 0 
48 1 -14.8816 -12.7028 0 
49 1 -11.8503 -12.472 0 
50 1 -12.6735 -11.9043 0 
51 1 -12.7536 -12.9011 0 
52 1 -9.58979 -12.0053 0 
53 1 -9.04887 -12.8463 0 
54 1 -5.21446 -12.3697 0 
55 1 -5.76227 -11.5331 0 
56 1 -6.7607 -11.5892 0 
57 1 -7.21131 -12.4819 0 
58 1 -6.66351 -13.3185 0 
59 1 -5.66508 -13.2624 0 
60 1 -2.48394 -11.8461 0 
61 1 -3.46544 -11.6546 0 
62 1 -3.95082 -12.5289 0 
63 1 -3.26929 -13.2607 0 
64 1 -2.36271 -12.8387 0 
65 1 0.835678 -11.8766 0 
66 1 -0.0577985 -11.4275 0 
67 1 -0.893477 -11.9767 0 
68 1 -0.835678 -12.975 0 
69 1 0.0577985 -13.4241 0 
70 1 0.893477 -12.8749 0 
71 1 3.79937 -12.5667 0 
72 1 3.24732 -11.7329 0 
73 1 2.41351 -12.2849 0 
74 1 2.96556 -13.1187 0 
75 1 6.54534 -12.8978 0 
76 1 6.45545 -11.9019 0 
77 1 5.63788 -12.4777 0 
78 1 8.82112 -13.1153 0 
79 1 9.82111 -13.1127 0 
80 1 10.1277 -12.1608 0 
81 1 9.31712 -11.5752 0 
82 1 8.50963 -12.165 0 
83 1 11.9306 -11.9211 0 
84 1 11.9211 -12.921 0 
85 1 12.921 -12.9305 0 
86 1 12.9305 -11.9306 0 
87 1 -15.4469 -10.0213 0 
88 1 -14.8303 -9.23405 0 
89 1 -15.6175 -8.61738 0 
90 1 -16.2341 -9.40461 0 
91 1 -12.6867 -9.74586 0 
92 1 -12.1649 -8.89281 0 
93 1 -9.74934 -8.93407 0 
94 1 -9.43797 -9.88436 0 
95 1 -8.77068 -9.13956 0 
96 1 -6.08278 -10.3108 0 
97 1 -5.28917 -9.7024 0 
98 1 -5.41928 -8.7109 0 
99 1 -6.343 -8.32783 0 
100 1 -7.13661 -8.93626 0 
101 1 -7.0065 -9.92776 0 
102 1 -3.60403 -10.0093 0 
103 1 -2.60404 -10.0058 0 
104 1 -2.29835 -9.05364 0 
105 1 -3.10941 -8.46868 0 
106 1 -3.91637 -9.05929 0 
107 1 0.437282 -8.94235 0 
108 1 -0.54512 -9.12913 0 
109 1 0.107837 -9.88652 0 
110 1 3.68791 -8.50576 0 
111 1 2.6926 -8.40898 0 
112 1 2.11113 -9.22255 0 
113 1 2.52497 -10.1329 0 
114 1 3.52028 -10.2297 0 
115 1 4.10175 -9.41611 0 
116 1 5.72885 -9.19401 0 
117 1 6.69693 -9.44465 0 
118 1 8.63531 -9.14012 0 
119 1 9.14012 -10.0034 0 
120 1 10.0034 -9.49854 0 
121 1 9.49854 -8.63531 0 
122 1 13.0276 -9.69054 0 
123 1 12.797 -8.7175 0 
124 1 11.824 -8.94812 0 
125 1 12.0546 -9.92116 0 
126 1 -15.9919 -5.8636 0 
127 1 -15.6048 -6.78565 0 
128 1 -14.9999 -5.98942 0 
129 1 -11.4493 -6.42843 0 
130 1 -11.7509 -5.47499 0 
131 1 -12.7274 -5.25945 0 
132 1 -13.4023 -5.99735 0 
133 1 -13.1007 -6.95079 0 
134 1 -12.1242 -7.16633 0 
135 1 -9.81703 -6.16497 0 
136 1 -8.82163 -6.26081 0 
137 1 -6.30201 -5.51142 0 
138 1 -6.91436 -6.30201 0 
139 1 -6.12377 -6.91436 0 
140 1 -5.51142 -6.12377 0 
141 1 -3.61131 -5.3497 0 
142 1 -4.10642 -6.21853 0 
143 1 -3.60155 -7.08172 0 
144 1 -2.60157 -7.07608 0 
145 1 -2.10646 -6.20725 0 
146 1 -2.61133 -5.34406 0 
147 1 0.0527191 -5.71568 0 
148 1 -0.0527191 -6.7101 0 
149 1 2.54144 -6.09413 0 
150 1 3.28609 -6.76158 0 
151 1 3.49179 -5.78296 0 
152 1 5.86901 -5.84992 0 
153 1 6.55677 -6.57586 0 
154 1 9.44813 -5.72976 0 
155 1 9.19053 -6.69602 0 
156 1 12.338 -5.21675 0 
157 1 11.5192 -5.79082 0 
158 1 11.607 -6.78696 0 
159 1 12.5136 -7.20903 0 
160 1 13.3324 -6.63496 0 
161 1 13.2446 -5.63882 0 
162 1 -14.7614 -2.74665 0 
163 1 -15.6362 -2.26217 0 
164 1 -16.3673 -2.94444 0 
165 1 -15.9443 -3.85059 0 
166 1 -14.9518 -3.72835 0 
167 1 -12.7927 -3.71093 0 
168 1 -11.8213 -3.47331 0 
169 1 -12.0589 -2.50195 0 
170 1 -13.0303 -2.73957 0 
171 1 -8.742 -3.10156 0 
172 1 -9.61222 -2.6089 0 
173 1 -9.60377 -3.60886 0 
174 1 -6.74965 -3.76637 0 
175 1 -5.75113 -3.82085 0 
176 1 -5.39075 -2.88805 0 
177 1 -6.16654 -2.25705 0 
178 1 -7.00638 -2.79988 0 
179 1 -3.58743 -2.96989 0 
180 1 -2.62545 -3.24299 0 
181 1 0.409756 -3.68272 0 
182 1 0.576281 -2.69668 0 
183 1 -0.409756 -2.53016 0 
184 1 -0.576281 -3.5162 0 
185 1 3.04485 -3.81086 0 
186 1 3.81086 -3.16803 0 
187 1 3.16803 -2.40202 0 
188 1 2.40202 -3.04485 0 
189 1 6.41507 -3.56374 0 
190 1 6.01071 -2.64914 0 
191 1 8.97676 -3.57117 0 
192 1 9.89309 -3.17075 0 
193 1 9.08815 -2.5774 0 
194 1 12.233 -2.56223 0 
195 1 12.0509 -3.5455 0 
196 1 12.9935 -3.21159 0 
197 1 -14.933 -0.800627 0 
198 1 -14.5393 0.118577 0 
199 1 -15.1384 0.919204 0 
200 1 -16.1314 0.800627 0 
201 1 -16.5251 -0.118577 0 
202 1 -15.926 -0.919204 0 
203 1 -12.7484 0.382044 0 
204 1 -12.1032 -0.382044 0 
205 1 -9.27197 0.575404 0 
206 1 -9.84133 -0.246686 0 
207 1 -8.8447 -0.328718 0 
208 1 -5.54963 -0.532624 0 
209 1 -5.50137 0.466211 0 
210 1 -6.43641 0.820758 0 
211 1 -7.06255 0.0410457 0 
212 1 -6.51449 -0.795391 0 
213 1 -3.65767 0.171692 0 
214 1 -2.97952 -0.563226 0 
215 1 -2.68214 0.391533 0 
216 1 -0.623484 -0.333569 0 
217 1 0.333569 -0.623484 0 
218 1 0.623484 0.333569 0 
219 1 -0.333569 0.623484 0 
220 1 2.6149 -0.0915803 0 
221 1 3.59798 0.0915803 0 
222 1 6.70486 -0.0892781 0 
223 1 5.72092 0.0892781 0 
224 1 8.62805 -0.72259 0 
225 1 9.59947 -0.959958 0 
226 1 10.2908 -0.237368 0 
227 1 10.0106 0.72259 0 
228 1 9.03919 0.959958 0 
229 1 8.34791 0.237368 0 
230 1 11.8873 -0.658499 0 
231 1 12.8857 -0.715634 0 
232 1 13.2485 0.216213 0 
233 1 12.4744 0.849261 0 
234 1 11.6331 0.308659 0 
235 1 -15.1784 2.33285 0 
236 1 -14.6871 3.20387 0 
237 1 -15.3637 3.94024 0 
238 1 -16.2731 3.52433 0 
239 1 -16.1586 2.53091 0 
240 1 -11.9265 3.13303 0 
241 1 -12.9251 3.07985 0 
242 1 -9.89516 3.06462 0 
243 1 -8.9952 2.62866 0 
244 1 -9.06763 3.62604 0 
245 1 -6.69268 2.78529 0 
246 1 -5.69487 2.85151 0 
247 1 -6.25112 3.68252 0 
248 1 -2.44752 3.85866 0 
249 1 -3.42842 4.05319 0 
250 1 -4.08734 3.30097 0 
251 1 -3.76536 2.35422 0 
252 1 -2.78446 2.15969 0 
253 1 -2.12554 2.91191 0 
254 1 0.410081 3.39251 0 
255 1 -0.410081 2.82037 0 
256 1 2.93474 2.12129 0 
257 1 3.87376 2.46517 0 
258 1 4.04545 3.45032 0 
259 1 3.27814 4.09159 0 
260 1 2.33912 3.74771 0 
261 1 2.16743 2.76256 0 
262 1 5.4006 3.68969 0 
263 1 5.30163 2.6946 0 
264 1 6.11393 2.11135 0 
265 1 7.02518 2.52319 0 
266 1 7.12415 3.51828 0 
267 1 6.31185 4.10153 0 
268 1 10.0146 2.97772 0 
269 1 9.44805 3.80173 0 
270 1 8.62404 3.23516 0 
271 1 9.19061 2.41115 0 
272 1 12.2589 4.09241 0 
273 1 11.4885 3.45489 0 
274 1 11.6554 2.46892 0 
275 1 12.5927 2.12047 0 
276 1 13.3631 2.75799 0 
277 1 13.1962 3.74396 0 
278 1 -15.0181 5.72742 0 
279 1 -15.0467 6.72701 0 
280 1 -16.0463 6.69836 0 
281 1 -16.0177 5.69877 0 
282 1 -11.9637 6.0219 0 
283 1 -12.8879 6.40388 0 
284 1 -9.86504 6.02438 0 
285 1 -8.88322 5.83455 0 
286 1 -9.20973 6.77974 0 
287 1 -5.87183 5.74704 0 
288 1 -5.97999 6.74118 0 
289 1 -6.78685 6.15045 0 
290 1 -3.63245 6.4509 0 
291 1 -3.04956 5.63835 0 
292 1 -2.63731 6.54942 0 
293 1 -0.791102 5.90022 0 
294 1 0.0529064 5.36389 0 
295 1 0.8238 6.00085 0 
296 1 0.45623 6.93085 0 
297 1 -0.541834 6.86865 0 
298 1 3.66346 6.06102 0 
299 1 2.95946 6.77122 0 
300 1 2.6964 5.80644 0 
301 1 7.19372 6.40775 0 
302 1 6.53455 7.15974 0 
303 1 5.55372 6.96488 0 
304 1 5.23206 6.01803 0 
305 1 5.89123 5.26604 0 
306 1 6.87206 5.46089 0 
307 1 9.66325 6.67662 0 
308 1 8.74576 6.27887 0 
309 1 9.54897 5.68318 0 
310 1 12.3255 6.70273 0 
311 1 12.5261 5.72305 0 
312 1 -16.1051 9.39112 0 
313 1 -15.3079 8.78731 0 
314 1 -15.1836 9.77955 0 
315 1 -11.9842 9.87157 0 
316 1 -12.978 9.76096 0 
317 1 -12.8674 8.76709 0 
318 1 -11.8736 8.8777 0 
319 1 -9.85672 9.77891 0 
320 1 -9.77891 8.78194 0 
321 1 -8.78194 8.85975 0 
322 1 -8.85975 9.85672 0 
323 1 -6.70368 9.22379 0 
324 1 -5.7221 9.41487 0 
325 1 -2.75631 8.96238 0 
326 1 -3.45657 9.67628 0 
327 1 -0.75033 8.91857 0 
328 1 0.149285 8.48188 0 
329 1 0.842593 9.20252 0 
330 1 0.371466 10.0846 0 
331 1 -0.613014 9.90909 0 
332 1 2.75811 9.67803 0 
333 1 3.45477 8.96063 0 
334 1 5.23142 9.51093 0 
335 1 5.55622 8.56515 0 
336 1 6.5377 8.37355 0 
337 1 7.19436 9.12773 0 
338 1 6.86956 10.0735 0 
339 1 5.88808 10.2651 0 
340 1 9.77003 9.10285 0 
341 1 8.86863 9.53582 0 
342 1 12.9531 9.7905 0 
343 1 11.9546 9.84659 0 
344 1 11.8985 8.84816 0 
345 1 12.897 8.79207 0 
346 1 -15.8441 11.9399 0 
347 1 -14.9555 12.3986 0 
348 1 -15.797 12.9388 0 
349 1 -12.6099 11.7431 0 
350 1 -11.7431 12.2417 0 
351 1 -12.2417 13.1085 0 
352 1 -13.1085 12.6099 0 
353 1 -9.53645 12.9608 0 
354 1 -9.67406 11.9703 0 
355 1 -8.74747 12.3464 0 
356 1 -6.24904 11.9271 0 
357 1 -6.17674 12.9245 0 
358 1 -3.2872 11.5946 0 
359 1 -2.37176 11.997 0 
360 1 -2.47162 12.992 0 
361 1 -3.44879 13.2045 0 
362 1 -3.95284 12.3408 0 
363 1 -0.539374 12.6317 0 
364 1 0.0913431 11.8557 0 
365 1 0.448031 12.7899 0 
366 1 2.63644 11.5431 0 
367 1 3.63585 11.5774 0 
368 1 4.10585 12.4601 0 
369 1 3.57644 13.3085 0 
370 1 2.57703 13.2742 0 
371 1 2.10703 12.3915 0 
372 1 6.75462 11.77 0 
373 1 7.00404 12.7383 0 
374 1 6.16012 13.2748 0 
375 1 5.38912 12.638 0 
376 1 5.75654 11.7079 0 
377 1 9.6903 11.6603 0 
378 1 10.162 12.5421 0 
379 1 9.46916 13.2632 0 
380 1 8.56926 12.8271 0 
381 1 8.70593 11.8364 0 
382 1 11.661 12.0535 0 
383 1 12.5436 11.5833 0 
384 1 13.2634 12.2775 0 
385 1 12.8257 13.1766 0 
386 1 11.8353 13.0381 0 
ITEM: TIMESTEP
100
ITEM: NUMBER OF ENTRIES
386
ITEM: BOX BOUNDS pp pp pp
-15.5322 15.5322
-15.5322 15.5322
-0.5 0.5
ITEM: ENTRIES index c_1[1] c_1[2] c_1[3] c_1[4] 
1 1 -15.5187 16.134 0 
2 1 -16.1105 15.328 0 
3 1 -15.7083 14.4124 0 
4 1 -14.7143 14.3029 0 
5 1 -14.1225 15.109 0 
6 1 -14.5247 16.0245 0 
7 1 -12.1124 -15.8342 0 
8 1 -11.7007 -14.9229 0 
9 1 -12.6121 -14.5112 0 
10 1 -13.0237 -15.4226 0 
11 1 -9.16484 15.5939 0 
12 1 -8.71006 14.7033 0 
13 1 -8.16617 15.5425 0 
14 1 -4.98667 -15.0363 0 
15 1 -5.83472 -14.5064 0 
16 1 -6.60076 -15.1492 0 
17 1 -6.22615 -16.0764 0 
18 1 -5.22859 -16.0066 0 
19 1 -3.99776 15.9042 0 
20 1 -4.12557 14.9124 0 
21 1 -3.33056 14.3058 0 
22 1 -2.40773 14.691 0 
23 1 -2.27991 15.6828 0 
24 1 -3.07493 16.2894 0 
25 1 -0.466478 14.8477 0 
26 1 0.417878 14.3809 0 
27 1 1.13512 15.0777 0 
28 1 0.69405 15.9752 0 
29 1 -0.295795 15.833 0 
30 1 2.49602 14.8724 0 
31 1 3.42523 14.5029 0 
32 1 4.06384 15.2724 0 
33 1 3.52931 16.1175 0 
34 1 2.56035 15.8703 0 
35 1 5.41445 15.4072 0 
36 1 6.41022 15.4991 0 
37 1 9.91271 -16.0148 0 
38 1 9.9952 -15.0182 0 
39 1 9.17336 -14.4484 0 
40 1 8.26905 -14.8753 0 
41 1 8.18656 -15.8719 0 
42 1 9.00839 -16.4416 0 
43 1 12.1636 14.5393 0 
44 1 12.7591 15.3427 0 
45 1 15.6088 -12.0863 0 
46 1 14.6906 -12.4824 0 
47 1 15.0867 -13.4006 0 
48 1 16.0049 -13.0045 0 
49 1 -11.3127 -11.9322 0 
50 1 -12.1376 -11.3669 0 
51 1 -12.2147 -12.3639 0 
52 1 -8.93311 -11.8835 0 
53 1 -8.35453 -12.6991 0 
54 1 -4.95036 -12.2305 0 
55 1 -5.46016 -11.3702 0 
56 1 -6.4601 -11.3816 0 
57 1 -6.95023 -12.2532 0 
58 1 -6.44042 -13.1135 0 
59 1 -5.44049 -13.1022 0 
60 1 -2.61844 -11.8584 0 
61 1 -3.61414 -11.7657 0 
62 1 -4.01 -12.684 0 
63 1 -3.25896 -13.3442 0 
64 1 -2.39893 -12.834 0 
65 1 1.0901 -11.6165 0 
66 1 0.197325 -11.166 0 
67 1 -0.639207 -11.714 0 
68 1 -0.58296 -12.7124 0 
69 1 0.309817 -13.1629 0 
70 1 1.14635 -12.615 0 
71 1 3.52063 -12.2825 0 
72 1 2.93563 -11.4714 0 
73 1 2.1246 -12.0564 0 
74 1 2.70961 -12.8675 0 
75 1 6.36634 -12.5787 0 
76 1 6.27181 -11.5832 0 
77 1 5.45692 -12.1628 0 
78 1 8.40153 -13.3983 0 
79 1 9.40153 -13.3992 0 
80 1 9.71141 -12.4484 0 
81 1 8.90292 -11.8599 0 
82 1 8.09338 -12.4469 0 
83 1 12.1626 -11.7733 0 
84 1 12.1507 -12.7732 0 
85 1 13.1507 -12.785 0 
86 1 13.1625 -11.7851 0 
87 1 15.2563 -9.49162 0 
88 1 15.8753 -8.70623 0 
89 1 15.0899 -8.08723 0 
90 1 14.4709 -8.87262 0 
91 1 -13.2268 -9.4424 0 
92 1 -12.7323 -8.57323 0 
93 1 -9.21845 -8.97693 0 
94 1 -8.93107 -9.93475 0 
95 1 -8.24527 -9.20696 0 
96 1 -5.97637 -10.4713 0 
97 1 -5.16363 -9.88864 0 
98 1 -5.26181 -8.89347 0 
99 1 -6.17274 -8.48092 0 
100 1 -6.98549 -9.06353 0 
101 1 -6.88731 -10.0587 0 
102 1 -3.22316 -9.6698 0 
103 1 -2.2238 -9.6341 0 
104 1 -1.94893 -8.67261 0 
105 1 -2.77842 -8.11409 0 
106 1 -3.56594 -8.73038 0 
107 1 0.453403 -9.25756 0 
108 1 -0.534616 -9.41189 0 
109 1 0.093048 -10.1904 0 
110 1 3.68834 -8.88882 0 
111 1 2.69278 -8.79473 0 
112 1 2.11352 -9.60988 0 
113 1 2.52982 -10.5191 0 
114 1 3.52539 -10.6132 0 
115 1 4.10465 -9.79804 0 
116 1 4.99213 -8.90213 0 
117 1 5.97945 -9.06093 0 
118 1 8.81 -9.3539 0 
119 1 9.33261 -10.2065 0 
120 1 10.1852 -9.68385 0 
121 1 9.66256 -8.83129 0 
122 1 12.6839 -9.59631 0 
123 1 12.4119 -8.63403 0 
124 1 11.4496 -8.90609 0 
125 1 11.7216 -9.86837 0 
126 1 14.7789 -5.30666 0 
127 1 15.1648 -6.2292 0 
128 1 15.7708 -5.43373 0 
129 1 -11.4273 -6.12788 0 
130 1 -11.7243 -5.17299 0 
131 1 -12.6997 -4.95274 0 
132 1 -13.3782 -5.68737 0 
133 1 -13.0812 -6.64226 0 
134 1 -12.1058 -6.86251 0 
135 1 -9.586 -6.68422 0 
136 1 -8.58896 -6.76111 0 
137 1 -6.70552 -5.61994 0 
138 1 -7.32999 -6.40099 0 
139 1 -6.54893 -7.02545 0 
140 1 -5.92447 -6.2444 0 
141 1 -3.35027 -5.49374 0 
142 1 -3.81015 -6.38172 0 
143 1 -3.27109 -7.22398 0 
144 1 -2.27213 -7.17827 0 
145 1 -1.81225 -6.29029 0 
146 1 -2.35132 -5.44803 0 
147 1 0.372422 -5.9659 0 
148 1 0.25568 -6.95907 0 
149 1 1.95248 -5.99549 0 
150 1 2.70149 -6.65805 0 
151 1 2.90078 -5.67811 0 
152 1 5.93995 -5.70105 0 
153 1 6.62616 -6.42845 0 
154 1 8.85432 -6.38363 0 
155 1 8.60805 -7.35283 0 
156 1 12.2989 -5.50416 0 
157 1 11.4795 -6.07734 0 
158 1 11.5661 -7.07358 0 
159 1 12.4722 -7.49663 0 
160 1 13.2917 -6.92345 0 
161 1 13.205 -5.92721 0 
162 1 16.1183 -2.29154 0 
163 1 15.2457 -1.80308 0 
164 1 14.5115 -2.48202 0 
165 1 14.9303 -3.39009 0 
166 1 15.9234 -3.27236 0 
167 1 -12.4589 -3.87747 0 
168 1 -11.4956 -3.60889 0 
169 1 -11.7642 -2.64563 0 
170 1 -12.7274 -2.91421 0 
171 1 -8.71657 -2.62292 0 
172 1 -9.5835 -2.1245 0 
173 1 -9.58168 -3.1245 0 
174 1 -6.93817 -3.51055 0 
175 1 -5.94354 -3.61411 0 
176 1 -5.53769 -2.70017 0 
177 1 -6.28149 -2.03176 0 
178 1 -7.14702 -2.5326 0 
179 1 -3.91832 -3.45083 0 
180 1 -2.95813 -3.73016 0 
181 1 0.0419644 -3.6556 0 
182 1 0.215583 -2.67078 0 
183 1 -0.76923 -2.49716 0 
184 1 -0.942848 -3.48198 0 
185 1 2.86028 -4.22959 0 
186 1 3.62447 -3.5846 0 
187 1 2.97948 -2.82041 0 
188 1 2.21529 -3.46539 0 
189 1 6.79867 -3.79643 0 
190 1 6.38528 -2.88588 0 
191 1 8.41632 -3.83393 0 
192 1 9.33749 -3.44476 0 
193 1 8.53988 -2.84159 0 
194 1 11.869 -2.97624 0 
195 1 11.712 -3.96383 0 
196 1 12.6458 -3.60604 0 
197 1 -14.633 -0.508163 0 
198 1 -14.2504 0.415718 0 
199 1 -14.8591 1.20907 0 
200 1 -15.8506 1.07854 0 
201 1 -16.2333 0.154658 0 
202 1 -15.6245 -0.638693 0 
203 1 -13.1104 0.335859 0 
204 1 -12.3959 -0.363817 0 
205 1 -9.66363 0.42007 0 
206 1 -10.2259 -0.406917 0 
207 1 -9.22855 -0.48032 0 
208 1 -5.8907 -0.984445 0 
209 1 -5.76769 0.00795959 0 
210 1 -6.67351 0.431621 0 
211 1 -7.35635 -0.298946 0 
212 1 -6.87255 -1.17412 0 
213 1 -3.15898 -0.287027 0 
214 1 -2.48083 -1.02195 0 
215 1 -2.18344 -0.0671919 0 
216 1 -0.654901 -0.45866 0 
217 1 0.299468 -0.757293 0 
218 1 0.598101 0.197075 0 
219 1 -0.356267 0.495709 0 
220 1 3.14543 -0.17975 0 
221 1 4.12726 0.0100332 0 
222 1 6.7866 0.113187 0 
223 1 5.80074 0.280747 0 
224 1 8.59182 -0.250831 0 
225 1 9.54777 -0.544336 0 
226 1 10.2799 0.136795 0 
227 1 10.0561 1.11143 0 
228 1 9.10018 1.40494 0 
229 1 8.36802 0.723804 0 
230 1 11.478 -0.656347 0 
231 1 12.4651 -0.816542 0 
232 1 12.9225 0.0727283 0 
233 1 12.2181 0.782523 0 
234 1 11.3253 0.331929 0 
235 1 15.4719 2.27417 0 
236 1 15.9722 3.14002 0 
237 1 15.3034 3.8834 0 
238 1 14.3897 3.47698 0 
239 1 14.4939 2.48242 0 
240 1 -12.3955 3.37382 0 
241 1 -13.3941 3.32158 0 
242 1 -9.89674 3.4323 0 
243 1 -8.99417 3.00176 0 
244 1 -9.07259 3.99868 0 
245 1 -6.65845 2.58495 0 
246 1 -5.66198 2.66893 0 
247 1 -6.23295 3.48991 0 
248 1 -2.20532 4.26682 0 
249 1 -3.18973 4.44271 0 
250 1 -3.83426 3.67814 0 
251 1 -3.49438 2.73767 0 
252 1 -2.50997 2.56178 0 
253 1 -1.86544 3.32635 0 
254 1 1.17654 3.34312 0 
255 1 0.318748 2.82912 0 
256 1 3.14424 1.85866 0 
257 1 4.06404 2.25104 0 
258 1 4.18412 3.2438 0 
259 1 3.38441 3.84418 0 
260 1 2.46461 3.4518 0 
261 1 2.34452 2.45903 0 
262 1 5.27159 3.6728 0 
263 1 5.14843 2.68041 0 
264 1 5.94628 2.07755 0 
265 1 6.86729 2.46708 0 
266 1 6.99046 3.45947 0 
267 1 6.19261 4.06233 0 
268 1 10.0735 3.31055 0 
269 1 9.48164 4.1166 0 
270 1 8.67559 3.52475 0 
271 1 9.26744 2.7187 0 
272 1 12.1701 4.02108 0 
273 1 11.3977 3.38591 0 
274 1 11.5616 2.39943 0 
275 1 12.4978 2.04811 0 
276 1 13.2702 2.68328 0 
277 1 13.1063 3.66976 0 
278 1 -14.6002 6.23766 0 
279 1 -14.6307 7.23719 0 
280 1 -15.6303 7.20663 0 
281 1 -15.5997 6.2071 0 
282 1 -12.4031 5.48053 0 
283 1 -13.333 5.84834 0 
284 1 -9.51517 5.56777 0 
285 1 -8.53342 5.37761 0 
286 1 -8.85961 6.32292 0 
287 1 -5.98836 5.77485 0 
288 1 -6.09573 6.76907 0 
289 1 -6.90306 6.17897 0 
290 1 -3.98395 6.26755 0 
291 1 -3.4097 5.44887 0 
292 1 -2.98783 6.35553 0 
293 1 -0.48345 6.21655 0 
294 1 0.401151 5.7502 0 
295 1 1.11803 6.4474 0 
296 1 0.676488 7.34464 0 
297 1 -0.313282 7.20197 0 
298 1 3.32786 5.85832 0 
299 1 2.623 6.56766 0 
300 1 2.36112 5.60256 0 
301 1 7.22849 6.24518 0 
302 1 6.57392 7.00118 0 
303 1 5.59192 6.81231 0 
304 1 5.26449 5.86743 0 
305 1 5.91906 5.11143 0 
306 1 6.90106 5.3003 0 
307 1 9.37943 7.02259 0 
308 1 8.46662 6.6142 0 
309 1 9.2767 6.02788 0 
310 1 12.1253 6.424 0 
311 1 12.2913 5.43788 0 
312 1 14.3968 9.08867 0 
313 1 15.1876 8.47657 0 
314 1 15.3223 9.46746 0 
315 1 -12.3005 9.67692 0 
316 1 -13.2937 9.56088 0 
317 1 -13.1777 8.56764 0 
318 1 -12.1845 8.68367 0 
319 1 -9.92391 9.72455 0 
320 1 -9.84552 8.72763 0 
321 1 -8.8486 8.80602 0 
322 1 -8.92699 9.80294 0 
323 1 -6.6394 9.68532 0 
324 1 -5.65699 9.87203 0 
325 1 -3.25783 8.68831 0 
326 1 -3.9647 9.39565 0 
327 1 -1.05533 8.5659 0 
328 1 -0.141597 8.15958 0 
329 1 0.527189 8.90304 0 
330 1 0.0267888 9.76883 0 
331 1 -0.951262 9.56047 0 
332 1 2.70786 10.1204 0 
333 1 3.39911 9.39777 0 
334 1 5.63031 9.74203 0 
335 1 5.96254 8.79883 0 
336 1 6.94549 8.61494 0 
337 1 7.59621 9.37426 0 
338 1 7.26398 10.3175 0 
339 1 6.28103 10.5013 0 
340 1 10.3628 9.22532 0 
341 1 9.44658 9.62592 0 
342 1 12.9354 10.0209 0 
343 1 11.9372 10.081 0 
344 1 11.8771 9.08279 0 
345 1 12.8753 9.02269 0 
346 1 -15.389 12.2514 0 
347 1 -14.4799 12.668 0 
348 1 -15.2953 13.247 0 
349 1 -12.1306 11.4439 0 
350 1 -11.2701 11.9533 0 
351 1 -11.7796 12.8138 0 
352 1 -12.6401 12.3044 0 
353 1 -9.8155 12.8835 0 
354 1 -9.96977 11.8955 0 
355 1 -9.03698 12.2559 0 
356 1 -5.54697 12.6643 0 
357 1 -5.48643 13.6624 0 
358 1 -3.14162 11.658 0 
359 1 -2.26969 12.1476 0 
360 1 -2.46592 13.1282 0 
361 1 -3.45913 13.2445 0 
362 1 -3.87673 12.3359 0 
363 1 -0.703582 13.181 0 
364 1 -0.0604252 12.4153 0 
365 1 0.281141 13.3552 0 
366 1 2.22676 11.7801 0 
367 1 3.22676 11.7807 0 
368 1 3.7262 12.6471 0 
369 1 3.22564 13.5128 0 
370 1 2.22564 13.5121 0 
371 1 1.7262 12.6458 0 
372 1 6.95828 11.4408 0 
373 1 7.32661 12.3705 0 
374 1 6.55624 13.0081 0 
375 1 5.7118 12.4724 0 
376 1 5.96026 11.5038 0 
377 1 9.76427 11.696 0 
378 1 10.2194 12.5864 0 
379 1 9.51317 13.2944 0 
380 1 8.62159 12.8416 0 
381 1 8.77678 11.8537 0 
382 1 11.6455 11.6268 0 
383 1 12.5244 11.1497 0 
384 1 13.2497 11.8382 0 
385 1 12.8191 12.7407 0 
386 1 11.8276 12.6101 0 
ITEM: TIMESTEP
200
ITEM: NUMBER OF ENTRIES
386
ITEM: BOX BOUNDS pp pp pp
-15.5322 15.5322
-15.5322 15.5322
-0.5 0.5
ITEM: ENTRIES index c_1[1] c_1[2] c_1[3] c_1[4] 
1 1 -15.0637 16.0758 0 
2 1 -15.6419 15.26 0 
3 1 -15.2245 14.3512 0 
4 1 -14.2289 14.2584 0 
5 1 -13.6506 15.0742 0 
6 1 -14.068 15.9829 0 
7 1 -12.1483 -15.5145 0 
8 1 -11.7117 -14.6149 0 
9 1 -12.6114 -14.1783 0 
10 1 -13.048 -15.0779 0 
11 1 -8.39941 15.3833 0 
12 1 -7.99457 14.4689 0 
13 1 -7.40511 15.2767 0 
14 1 -5.09044 -14.4747 0 
15 1 -6.05792 -14.2218 0 
16 1 -6.59743 -15.0638 0 
17 1 -5.96338 -15.8371 0 
18 1 -5.032 -15.473 0 
19 1 -3.61358 16.0694 0 
20 1 -3.90217 15.1119 0 
21 1 -3.21729 14.3833 0 
22 1 -2.24382 14.6121 0 
23 1 -1.95523 15.5695 0 
24 1 -2.64011 16.2982 0 
25 1 0.135297 14.6927 0 
26 1 1.09903 14.4258 0 
27 1 1.65065 15.2599 0 
28 1 1.02785 16.0423 0 
29 1 0.0913066 15.6918 0 
30 1 2.65397 14.8282 0 
31 1 3.64839 14.7227 0 
32 1 4.05605 15.6358 0 
33 1 3.31358 16.3057 0 
34 1 2.44705 15.8066 0 
35 1 5.10392 15.2682 0 
36 1 6.09658 15.3891 0 
37 1 9.63754 -16.0903 0 
38 1 9.65981 -15.0905 0 
39 1 8.80514 -14.5714 0 
40 1 7.92819 -15.052 0 
41 1 7.90592 -16.0517 0 
42 1 8.7606 -16.5709 0 
43 1 12.2207 13.864 0 
44 1 12.7888 14.6869 0 
45 1 15.3007 -12.453 0 
46 1 14.4134 -12.9143 0 
47 1 14.8747 -13.8015 0 
48 1 15.762 -13.3403 0 
49 1 -10.7772 -11.3944 0 
50 1 -11.6072 -10.8367 0 
51 1 -11.6752 -11.8343 0 
52 1 -8.22776 -11.7091 0 
53 1 -7.99469 -12.6816 0 
54 1 -4.74884 -12.4243 0 
55 1 -5.19566 -11.5297 0 
56 1 -6.19384 -11.4693 0 
57 1 -6.74519 -12.3036 0 
58 1 -6.29837 -13.1982 0 
59 1 -5.30019 -13.2586 0 
60 1 -2.72799 -12.0222 0 
61 1 -3.67083 -12.3555 0 
62 1 -3.64526 -13.3551 0 
63 1 -2.68662 -13.6397 0 
64 1 -2.11971 -12.816 0 
65 1 1.09872 -11.6845 0 
66 1 0.201805 -11.2423 0 
67 1 -0.629616 -11.798 0 
68 1 -0.564127 -12.7958 0 
69 1 0.332784 -13.238 0 
70 1 1.16421 -12.6824 0 
71 1 3.61079 -12.8984 0 
72 1 3.37641 -11.9262 0 
73 1 2.40427 -12.1606 0 
74 1 2.63865 -13.1328 0 
75 1 6.23975 -12.2512 0 
76 1 6.10272 -11.2606 0 
77 1 5.31338 -11.8745 0 
78 1 8.30869 -13.6485 0 
79 1 9.25293 -13.3192 0 
80 1 9.23157 -12.3195 0 
81 1 8.27413 -12.0308 0 
82 1 7.70376 -12.8522 0 
83 1 12.4736 -11.6123 0 
84 1 12.4635 -12.6122 0 
85 1 13.4634 -12.6224 0 
86 1 13.4736 -11.6224 0 
87 1 14.8546 -8.93096 0 
88 1 15.4793 -8.15011 0 
89 1 14.6985 -7.52539 0 
90 1 14.0737 -8.30624 0 
91 1 -13.7596 -9.07668 0 
92 1 -13.3262 -8.17549 0 
93 1 -8.76098 -9.07134 0 
94 1 -8.55655 -10.0502 0 
95 1 -7.81103 -9.38374 0 
96 1 -5.93097 -10.1858 0 
97 1 -5.06513 -9.68547 0 
98 1 -5.0655 -8.68547 0 
99 1 -5.93172 -8.18579 0 
100 1 -6.79756 -8.68611 0 
101 1 -6.79718 -9.68611 0 
102 1 -2.82017 -9.98556 0 
103 1 -1.82552 -9.88227 0 
104 1 -1.6164 -8.90438 0 
105 1 -2.4818 -8.40331 0 
106 1 -3.22577 -9.07152 0 
107 1 0.343768 -8.92229 0 
108 1 -0.647674 -9.05283 0 
109 1 -0.0388976 -9.84618 0 
110 1 3.32093 -8.78591 0 
111 1 2.32093 -8.78315 0 
112 1 1.81854 -9.64779 0 
113 1 2.31614 -10.5152 0 
114 1 3.31614 -10.518 0 
115 1 3.81853 -9.65332 0 
116 1 4.87178 -8.81291 0 
117 1 5.86418 -8.68979 0 
118 1 8.97542 -9.54285 0 
119 1 9.4967 -10.3962 0 
120 1 10.3501 -9.87495 0 
121 1 9.8288 -9.02157 0 
122 1 12.3467 -9.56429 0 
123 1 11.9201 -8.65982 0 
124 1 11.0157 -9.08636 0 
125 1 11.4422 -9.99083 0 
126 1 14.4312 -4.76932 0 
127 1 14.8172 -5.69182 0 
128 1 15.4231 -4.89628 0 
129 1 -11.476 -5.77585 0 
130 1 -11.9394 -4.88971 0 
131 1 -12.9385 -4.84796 0 
132 1 -13.4743 -5.69235 0 
133 1 -13.0108 -6.5785 0 
134 1 -12.0117 -6.62025 0 
135 1 -9.4267 -7.2076 0 
136 1 -8.47636 -7.51884 0 
137 1 -6.97457 -5.7651 0 
138 1 -7.67046 -6.48324 0 
139 1 -6.95231 -7.17914 0 
140 1 -6.25642 -6.46099 0 
141 1 -3.14438 -5.185 0 
142 1 -3.50752 -6.11673 0 
143 1 -2.88219 -6.89709 0 
144 1 -1.89371 -6.74572 0 
145 1 -1.53057 -5.81398 0 
146 1 -2.1559 -5.03362 0 
147 1 0.237983 -6.2946 0 
148 1 0.583083 -7.23317 0 
149 1 1.47984 -5.84513 0 
150 1 2.12082 -6.61269 0 
151 1 2.46505 -5.6738 0 
152 1 6.04498 -5.53786 0 
153 1 6.723 -6.27291 0 
154 1 8.23458 -7.07756 0 
155 1 8.07751 -8.06515 0 
156 1 12.2748 -5.68787 0 
157 1 11.4929 -6.31125 0 
158 1 11.6418 -7.3001 0 
159 1 12.5726 -7.66558 0 
160 1 13.3545 -7.0422 0 
161 1 13.2056 -6.05335 0 
162 1 15.9082 -1.71826 0 
163 1 15.0193 -1.26024 0 
164 1 14.309 -1.96413 0 
165 1 14.7589 -2.85718 0 
166 1 15.7473 -2.70523 0 
167 1 -12.0129 -3.8483 0 
168 1 -11.0438 -3.60136 0 
169 1 -11.2908 -2.63233 0 
170 1 -12.2598 -2.87926 0 
171 1 -8.6364 -2.12891 0 
172 1 -9.50489 -1.6332 0 
173 1 -9.49993 -2.63319 0 
174 1 -7.13998 -3.48346 0 
175 1 -6.25645 -3.95183 0 
176 1 -5.53798 -3.25627 0 
177 1 -5.97747 -2.35802 0 
178 1 -6.96756 -2.49843 0 
179 1 -4.30036 -3.94951 0 
180 1 -3.31065 -4.09261 0 
181 1 -0.331584 -3.5918 0 
182 1 -0.148979 -2.60861 0 
183 1 -1.13216 -2.42601 0 
184 1 -1.31477 -3.40919 0 
185 1 2.70771 -4.61321 0 
186 1 3.44711 -3.93994 0 
187 1 2.77385 -3.20054 0 
188 1 2.03445 -3.87381 0 
189 1 6.75137 -4.05622 0 
190 1 6.80482 -3.05765 0 
191 1 8.15565 -4.20658 0 
192 1 8.90734 -3.54707 0 
193 1 7.96034 -3.22584 0 
194 1 11.5102 -3.48009 0 
195 1 11.435 -4.47725 0 
196 1 12.3362 -4.04386 0 
197 1 -14.3641 -0.0911573 0 
198 1 -14.2498 0.902286 0 
199 1 -15.053 1.49801 0 
200 1 -15.9705 1.1003 0 
201 1 -16.0848 0.106856 0 
202 1 -15.2816 -0.488873 0 
203 1 -12.9088 0.252323 0 
204 1 -12.4092 -0.613922 0 
205 1 -10.0832 0.25247 0 
206 1 -10.5437 -0.635173 0 
207 1 -9.5447 -0.590183 0 
208 1 -6.55209 -1.08465 0 
209 1 -6.18542 -0.154298 0 
210 1 -6.95692 0.481925 0 
211 1 -7.80041 -0.0552148 0 
212 1 -7.55022 -1.02341 0 
213 1 -2.67199 -0.804647 0 
214 1 -1.9083 -1.45023 0 
215 1 -1.73105 -0.466065 0 
216 1 -0.670025 -0.665571 0 
217 1 0.294941 -0.92795 0 
218 1 0.55732 0.0370157 0 
219 1 -0.407646 0.299395 0 
220 1 3.74916 -0.206599 0 
221 1 4.72686 0.00341865 0 
222 1 6.92775 0.436253 0 
223 1 5.93274 0.535976 0 
224 1 8.15275 0.405645 0 
225 1 8.99702 -0.130274 0 
226 1 9.88328 0.332925 0 
227 1 9.92526 1.33204 0 
228 1 9.08099 1.86796 0 
229 1 8.19474 1.40476 0 
230 1 11.2815 -0.0962079 0 
231 1 12.0961 -0.676183 0 
232 1 12.8994 -0.0806423 0 
233 1 12.5813 0.867397 0 
234 1 11.5813 0.857777 0 
235 1 15.2977 2.29988 0 
236 1 15.5882 3.25676 0 
237 1 14.7679 3.82873 0 
238 1 13.9704 3.22536 0 
239 1 14.2979 2.28048 0 
240 1 -12.9398 3.67277 0 
241 1 -13.9347 3.57166 0 
242 1 -9.88611 3.72093 0 
243 1 -9.062 3.15451 0 
244 1 -8.98352 4.15142 0 
245 1 -6.59809 2.37259 0 
246 1 -5.60564 2.49523 0 
247 1 -6.20807 3.2934 0 
248 1 -2.00957 4.33374 0 
249 1 -3.00791 4.39145 0 
250 1 -3.55705 3.55573 0 
251 1 -3.10787 2.66229 0 
252 1 -2.10953 2.60458 0 
253 1 -1.56039 3.4403 0 
254 1 0.653609 3.39924 0 
255 1 0.317246 2.45751 0 
256 1 3.20051 1.72582 0 
257 1 4.13725 2.07584 0 
258 1 4.3025 3.06209 0 
259 1 3.531 3.69833 0 
260 1 2.59426 3.34831 0 
261 1 2.42901 2.36205 0 
262 1 5.63759 3.66184 0 
263 1 5.47761 2.67472 0 
264 1 6.25249 2.04261 0 
265 1 7.18735 2.39762 0 
266 1 7.34733 3.38474 0 
267 1 6.57245 4.01685 0 
268 1 10.224 3.50962 0 
269 1 9.57088 4.26689 0 
270 1 8.8136 3.61379 0 
271 1 9.4667 2.85652 0 
272 1 11.9484 3.91875 0 
273 1 11.1948 3.26139 0 
274 1 11.3873 2.28009 0 
275 1 12.3334 1.95616 0 
276 1 13.087 2.61352 0 
277 1 12.8945 3.59482 0 
278 1 -14.1261 6.78255 0 
279 1 -14.1541 7.78216 0 
280 1 -15.1537 7.75422 0 
281 1 -15.1257 6.75461 0 
282 1 -13.075 4.9599 0 
283 1 -13.9606 5.42445 0 
284 1 -9.14807 5.4547 0 
285 1 -8.25311 5.00855 0 
286 1 -8.31421 6.00668 0 
287 1 -6.12824 5.78416 0 
288 1 -6.24699 6.77708 0 
289 1 -7.04751 6.17778 0 
290 1 -4.43107 6.89355 0 
291 1 -3.87479 6.06256 0 
292 1 -3.43327 6.95981 0 
293 1 0.15084 5.65013 0 
294 1 1.12147 5.89071 0 
295 1 1.1926 6.88818 0 
296 1 0.265934 7.26406 0 
297 1 -0.37791 6.49891 0 
298 1 2.90634 5.68601 0 
299 1 2.12889 6.31495 0 
300 1 1.97294 5.32718 0 
301 1 7.31792 5.98863 0 
302 1 6.73435 6.80069 0 
303 1 5.7393 6.70134 0 
304 1 5.32782 5.78992 0 
305 1 5.91139 4.97786 0 
306 1 6.90644 5.07721 0 
307 1 8.86442 7.33417 0 
308 1 7.98246 6.86283 0 
309 1 8.83162 6.3347 0 
310 1 11.9558 5.93304 0 
311 1 12.016 4.93485 0 
312 1 13.8006 8.69542 0 
313 1 14.567 8.05311 0 
314 1 14.7401 9.03803 0 
315 1 -12.6158 9.52087 0 
316 1 -13.6062 9.38235 0 
317 1 -13.4676 8.39199 0 
318 1 -12.4773 8.53051 0 
319 1 -9.99848 9.68508 0 
320 1 -9.92187 8.68802 0 
321 1 -8.92481 8.76463 0 
322 1 -9.00142 9.76169 0 
323 1 -6.53719 10.1515 0 
324 1 -5.54526 10.2783 0 
325 1 -3.78655 8.42998 0 
326 1 -4.51497 9.11511 0 
327 1 -1.0298 8.54187 0 
328 1 -0.0331926 8.45961 0 
329 1 0.353005 9.38203 0 
330 1 -0.404923 10.0344 0 
331 1 -1.25955 9.51512 0 
332 1 2.68877 10.6741 0 
333 1 3.32086 9.89915 0 
334 1 6.07165 9.45342 0 
335 1 6.54191 8.5709 0 
336 1 7.54134 8.5369 0 
337 1 8.07049 9.38543 0 
338 1 7.60022 10.268 0 
339 1 6.6008 10.302 0 
340 1 11.0006 9.52535 0 
341 1 10.0178 9.71006 0 
342 1 12.9253 9.75925 0 
343 1 11.9285 9.83844 0 
344 1 11.8493 8.84158 0 
345 1 12.8461 8.76239 0 
346 1 -14.6942 12.0718 0 
347 1 -14.045 12.8324 0 
348 1 -15.0283 13.0143 0 
349 1 -11.9911 11.1512 0 
350 1 -11.0842 11.5724 0 
351 1 -11.5054 12.4794 0 
352 1 -12.4124 12.0581 0 
353 1 -10.0576 12.5607 0 
354 1 -9.60726 11.6678 0 
355 1 -9.05915 12.5042 0 
356 1 -4.62376 13.5203 0 
357 1 -4.70572 14.5169 0 
358 1 -2.79955 11.5102 0 
359 1 -2.20934 12.3174 0 
360 1 -2.7947 13.1282 0 
361 1 -3.74668 12.8221 0 
362 1 -3.74968 11.8221 0 
363 1 -0.58872 13.5302 0 
364 1 -0.730848 12.5404 0 
365 1 0.19745 12.9122 0 
366 1 1.58134 11.8768 0 
367 1 2.55881 11.6657 0 
368 1 3.23033 12.4067 0 
369 1 2.92438 13.3587 0 
370 1 1.94691 13.5698 0 
371 1 1.27538 12.8288 0 
372 1 6.93795 11.4547 0 
373 1 7.71392 12.0854 0 
374 1 7.3538 13.0183 0 
375 1 6.35527 12.9641 0 