LAMMPS (22 Aug 2018)
  using 1 OpenMP thread(s) per MPI task
units lj
dimension 2
atom_style body nparticle 2 6
read_data data.body
  orthogonal box = (-15.5322 -15.5322 -0.5) to (15.5322 15.5322 0.5)
  1 by 1 by 1 MPI processor grid
  reading atoms ...
  100 atoms
  100 bodies
velocity all create 1.44 87287 loop geom
pair_style body/nparticle 5.0
pair_coeff * * 1.0 1.0
neighbor 0.5 bin
neigh_modify every 1 delay 0 check yes
fix 1 all nve/body
fix 2 all enforce2d
compute 1 all body/local type 1 2 3
dump 1 all local 100 dump.body index c_1[1] c_1[2] c_1[3] c_1[4]
dump 2 all movie 1000 mov.mp4 type type zoom 1.6 adiam 1.5 body type 1.0 0
dump_modify 2 pad 5
thermo 100
run 10000
Neighbor list info ...
  update every 1 steps, delay 0 steps, check yes
  max neighbors/atom: 2000, page size: 100000
  master list distance cutoff = 5.5
  ghost atom cutoff = 5.5
  binsize = 2.75, bins = 12 12 1
  1 neighbor lists, perpetual/occasional/extra = 1 0 0
  (1) pair body/nparticle, perpetual
      attributes: half, newton on
      pair build: half/bin/atomonly/newton
      stencil: half/bin/2d/newton
      bin: standard
Per MPI rank memory allocation (min/avg/max) = 6.343 | 6.343 | 6.343 Mbytes
Step Temp E_pair E_mol TotEng Press 
       0         1.44  -0.63799525            0   0.78760475  -0.15028724 
     100     1.642337   -1.0003869            0   0.62552682   0.16140818 
     200     1.470473   -1.2465469            0   0.20922135   0.35146925 
     300    1.4834687   -1.3464946            0   0.12213946   0.40783535 
     400    1.5075814   -1.6170041            0  -0.12449852   0.11302717 
     500    1.5681124   -1.6060641            0 -0.053632801   0.23819933 
     600    1.7129405   -1.6939468            0 0.0018642497   0.46490776 
     700    1.5803869   -1.6182998            0 -0.053716823   0.36807869 
     800    1.6454324   -1.6537709            0 -0.024792836   0.21305673 
     900    1.5454528   -1.6310447            0  -0.10104644   0.22323772 
    1000    1.7596217   -1.7290976            0  0.012927885   0.12600944 
    1100    1.3845533    -1.635035            0  -0.26432721   0.31778997 
    1200    1.6448321   -1.6985254            0 -0.070141617   0.14347958 
    1300    1.6158541    -1.581817            0  0.017878542   0.16186587 
    1400    1.4702758   -1.5210898            0 -0.065516795   0.35241206 
    1500    1.5746718   -1.5427933            0  0.016131752   0.21832854 
    1600    1.5276571   -1.6755951            0  -0.16321448 -0.046196203 
    1700    1.8182154   -1.7471336            0  0.052899559   0.14576282 
    1800    1.8054445   -1.8814073            0  -0.09401725   0.11678213 
    1900     1.631815    -1.636557            0 -0.021060179   0.29300394 
    2000    1.6187641   -1.5563102            0  0.046266247   0.35910654 
    2100     1.826984   -1.9189437            0  -0.11022953  -0.03133688 
    2200    1.8203053   -1.8672799            0  -0.06517772   0.38666485 
    2300    2.1336721    -1.896103            0   0.21623243   0.13306744 
    2400    1.7928635   -1.7130459            0  0.061888934   0.30488768 
    2500    1.7195458   -1.6914953            0  0.010854996   0.25108817 
    2600     1.775351   -1.7752024            0 -0.017604906   0.10635998 
    2700    1.7658995    -1.783392            0 -0.035151444   0.12760013 
    2800    1.6802875   -1.6293566            0  0.034127988   0.03169319 
    2900    1.7197681     -1.60626            0  0.096310423   0.22052952 
    3000    1.7844605   -1.7056794            0  0.060936459  0.079546688 
    3100    1.5767365    -1.611862            0 -0.050892909   0.48246069 
    3200    1.7267557     -1.69475            0  0.014738136   0.28647586 
    3300    1.6021301   -1.5815671            0 0.0045416279  0.031264474 
    3400    1.5766212   -1.6670015            0  -0.10614652   0.25189132 
    3500    1.6044084   -1.6469843            0 -0.058619977    0.3548191 
    3600    1.7818757   -1.8903506            0  -0.12629365   0.19301366 
    3700    1.5027779   -1.7766683            0  -0.28891812   0.33668301 
    3800    1.5943379   -1.8617423            0  -0.28334775   0.19889079 
    3900    1.5539003    -1.862431            0  -0.32406978   0.34528864 
    4000    1.7836993   -1.7366321            0  0.029230231    0.4114857 
    4100    1.7994915   -1.7271853            0  0.054311247   0.23939158 
    4200    1.7570171   -1.6725443            0  0.066902708   0.35578804 
    4300    1.5607505   -1.6159271            0 -0.070784098   0.01849698 
    4400    1.4687833   -1.5395284            0 -0.085432999   0.28258362 
    4500    1.6249017   -1.5165574            0   0.09209525   0.13655787 
    4600    1.5475785    -1.579065            0 -0.046962316   0.34855494 
    4700    1.5394576   -1.6823417            0  -0.15827869  0.084647262 
    4800    1.5650852   -1.6489252            0 -0.099490852   0.24806581 
    4900    1.5619982    -1.639637            0 -0.093258775     0.019474 
    5000    1.3156121   -1.4656183            0  -0.16316232   0.14880532 
    5100    1.4043765   -1.5434269            0  -0.15309418  0.046390411 
    5200     1.468143   -1.6220989            0  -0.16863738  0.096352297 
    5300    1.5514325   -1.6340574            0 -0.098139184   0.21743125 
    5400    1.5670065   -1.6911465            0  -0.13981004   0.22651874 
    5500    1.4493103   -1.6884505            0  -0.25363329   0.44799936 
    5600    1.3734231   -1.7209615            0  -0.36127263    0.3165881 
    5700    1.5119204    -1.708507            0   -0.2117058   0.18310374 
    5800     1.609196   -1.7205131            0  -0.12740905  0.040214024 
    5900    1.5322669   -1.6267054            0  -0.10976115   0.39093924 
    6000    1.6380057   -1.6026933            0  0.018932349   0.26637337 
    6100     1.858664    -1.746061            0   0.09401637  0.096052321 
    6200    1.7687708    -1.850476            0 -0.099392968   0.14439141 
    6300    1.7928016   -1.6927552            0  0.082118409   0.38448335 
    6400    1.8425447   -1.8418714            0 -0.017752141    0.1779804 
    6500    1.7531231    -1.883958            0  -0.14836616  0.093773236 
    6600    1.6737742   -1.7186117            0 -0.061575237   0.56468622 
    6700    1.5848808   -1.8313855            0  -0.26235354    0.2702762 
    6800    1.7838831   -1.8681679            0  -0.10212362   0.33945595 
    6900    1.8812539   -1.8249335            0  0.037507794   0.30016327 
    7000     1.917162   -1.8647454            0  0.033245056 -0.021709623 
    7100    1.8752442   -1.8607288            0 -0.0042370323   0.03044476 
    7200    1.7223844   -1.7033284            0 0.0018321851   0.46250516 
    7300    1.8061221   -1.7303189            0  0.057741925   0.62231356 
    7400    1.9802722   -1.7705513            0   0.18991827  -0.02800285 
    7500     1.789724   -1.6959293            0  0.075897381   0.25846158 
    7600    1.5635067   -1.6122972            0 -0.064425529   0.36001954 
    7700     1.889271   -1.6854158            0   0.18496241   0.35466743 
    7800    1.6155248   -1.7152214            0  -0.11585177   0.28464894 
    7900    1.7090827   -1.7118411            0 -0.019849219 -0.033971496 
    8000    1.6943677   -1.7934623            0  -0.11603828   0.23999225 
    8100    1.7548864   -1.7333462            0 0.0039913458   0.12973168 
    8200    1.6833889   -1.7012906            0 -0.034735593   0.16377446 
    8300    1.6843349    -1.732894            0 -0.065402467   0.28483072 
    8400     1.673538   -1.6188566            0  0.037946037   0.22415285 
    8500    1.7540323   -1.7280886            0 0.0084033101   0.31854664 
    8600    1.6007646   -1.6265201            0 -0.041763211   0.35888199 
    8700    1.7981502   -1.8219051            0 -0.041736378   0.18083363 
    8800    1.7074426   -1.8849617            0  -0.19459359   0.37326927 
    8900    1.7359265    -1.817562            0 -0.098994753   0.42301204 
    9000     1.542752   -1.6867226            0  -0.15939817   0.36890377 
    9100     1.610069   -1.7070039            0  -0.11303559  0.062718532 
    9200    1.5531314   -1.7437315            0  -0.20613139  0.098448761 
    9300    1.5978178   -1.7037732            0  -0.12193358   0.17445342 
    9400    1.5209498    -1.647855            0  -0.14211468   0.44858167 
    9500    1.3144556   -1.6299075            0  -0.32859654   0.27165226 
    9600    1.5949394   -1.6842914            0   -0.1053014   0.32115812 
    9700    1.5966347   -1.5967175            0 -0.016049082    0.4875729 
    9800    1.5416714   -1.6291668            0  -0.10291207   0.30893305 
    9900    1.4839507   -1.7345323            0  -0.26542109   0.15990811 
   10000    1.4404904   -1.5718395            0  -0.14575394   0.17654154 
Loop time of 1.20904 on 1 procs for 10000 steps with 100 atoms

Performance: 3573085.812 tau/day, 8271.032 timesteps/s
96.9% CPU use with 1 MPI tasks x 1 OpenMP threads

MPI task timing breakdown:
Section |  min time  |  avg time  |  max time  |%varavg| %total
---------------------------------------------------------------
Pair    | 0.91894    | 0.91894    | 0.91894    |   0.0 | 76.01
Neigh   | 0.0076814  | 0.0076814  | 0.0076814  |   0.0 |  0.64
Comm    | 0.016076   | 0.016076   | 0.016076   |   0.0 |  1.33
Output  | 0.13818    | 0.13818    | 0.13818    |   0.0 | 11.43
Modify  | 0.1211     | 0.1211     | 0.1211     |   0.0 | 10.02
Other   |            | 0.007064   |            |       |  0.58

Nlocal:    100 ave 100 max 100 min
Histogram: 1 0 0 0 0 0 0 0 0 0
Nghost:    76 ave 76 max 76 min
Histogram: 1 0 0 0 0 0 0 0 0 0
Neighs:    467 ave 467 max 467 min
Histogram: 1 0 0 0 0 0 0 0 0 0

Total # of neighbors = 467
Ave neighs/atom = 4.67
Neighbor list builds = 462
Dangerous builds = 0
undump 2
Total wall time: 0:06:45
