LAMMPS (22 Aug 2018)
Running on 13 partitions of processors
Step MaxReplicaForce MaxAtomForce GradV0 GradV1 GradVc EBF EBR RDT RD1 PE1 RD2 PE2 ... RDN PEN
0     14519.51    8581.5046  0.082169072    4.9967651    14525.099     1.294958    1.2888601    1.8941131            0   -3.0535948  0.083333333   -3.0503374   0.16666667    -3.030789         0.25   -2.9388631   0.33333333   -2.6242605   0.41666667   -2.0306785          0.5   -1.7586368   0.58333333   -2.2346214   0.66666667   -2.7623811         0.75   -2.9818873   0.83333333   -3.0373797   0.91666667   -3.0470513            1   -3.0474969 
10    29.415981     20.15587  0.039944584     3.605702    28.835835 0.0095359104 0.0037795694    2.0977679            0   -3.0535956  0.066962417   -3.0525646    0.1376543   -3.0505013   0.21057952   -3.0485039   0.29469943   -3.0468891   0.41542806   -3.0440597   0.48847813   -3.0446787   0.60563969   -3.0444124   0.70662679   -3.0455728   0.79870922   -3.0462667   0.85978107   -3.0467789   0.93065398   -3.0475095            1   -3.0478393 
20    2.1409773    1.6088547 0.0062745183    2.1312804    1.6161612 0.0072891076 0.0021042408    2.1578097            0   -3.0535962  0.070464309   -3.0527974    0.1414852   -3.0508367   0.21461608   -3.0490295   0.29292372   -3.0477356   0.40863965   -3.0467952   0.47849292   -3.0464779    0.5949209   -3.0463071    0.6937381   -3.0463342   0.78111346   -3.0465865   0.84531688   -3.0469489   0.91566735    -3.047574            1   -3.0484113 
30    2.5327581    1.2022673 0.0072583317   0.71737581    1.0965114 0.0071423666 0.0022492979    2.2940073            0   -3.0535964  0.073498299   -3.0528398   0.14404294   -3.0508544   0.21665811   -3.0490677   0.29329652    -3.047791   0.40075465   -3.0468955   0.47059234   -3.0466046   0.57854708    -3.046454   0.67031244   -3.0464851   0.75448246   -3.0466692   0.82020484   -3.0469944    0.8899396   -3.0476201            1   -3.0487033 
40   0.40861855   0.31941313 0.0079263427   0.39648597    0.2569225 0.0071185815 0.0022690149    2.3421208            0   -3.0535965   0.07525961   -3.0528368   0.14695679   -3.0507976   0.22037049    -3.048995     0.296838   -3.0477408   0.39949229   -3.0469008   0.47045196   -3.0466305   0.57370203   -3.0464779   0.66272756   -3.0465034   0.74592681    -3.046682   0.81348732   -3.0470187   0.88417268   -3.0476772            1   -3.0487469 
50   0.29561036   0.19798717 0.0075566049   0.24731273   0.16275473 0.0071134226 0.0022789791    2.3692583            0   -3.0535965  0.076950607   -3.0528231   0.14986369    -3.050734   0.22413802   -3.0489199   0.30087238   -3.0476864   0.40002751   -3.0468936   0.47217313   -3.0466254   0.57192652   -3.0464831    0.6593035   -3.0465102   0.74200166   -3.0466896   0.81131043   -3.0470428   0.88315269   -3.0477387            1   -3.0487621 
60   0.23606546   0.18344615 0.0070020921   0.16790957   0.12214227 0.0071115076 0.0022834641    2.3863656            0   -3.0535966  0.078444768   -3.0528114   0.15242738   -3.0506804   0.22749721   -3.0488562   0.30463426   -3.0476399   0.40117874   -3.0468849   0.47443031   -3.0466189   0.57154758   -3.0464851   0.65785765   -3.0465141    0.7402797   -3.0466959   0.81111492   -3.0470662   0.88405653   -3.0477978            1   -3.0487686 
70   0.37203454   0.17232814 0.0064394679   0.11706146  0.099821831 0.0071107168 0.0022861011     2.399329            0   -3.0535966   0.07983319   -3.0528017   0.15483254   -3.0506325   0.23068539   -3.0487984   0.30830016   -3.0475982   0.40263328    -3.046876   0.47696408   -3.0466118   0.57182865   -3.0464859   0.65733327   -3.0465172     0.739589   -3.0467024   0.81186595   -3.0470905   0.88589248   -3.0478578            1    -3.048772 
80   0.21389521   0.15987623 0.0059683939  0.085585578  0.087591926 0.0071103508 0.0022875804    2.4088999            0   -3.0535967  0.080984895   -3.0527961   0.15686425   -3.0505941   0.23341932   -3.0487509   0.31150713    -3.047564   0.40408696    -3.046868   0.47937123   -3.0466058   0.57243953   -3.0464863   0.65736669   -3.0465197   0.73953677   -3.0467084   0.81305655   -3.0471133   0.88804464   -3.0479126            1   -3.0487739 
90   0.19139962   0.14814071 0.0055984562  0.065726458  0.077766211 0.0071102455 0.0022885271    2.4160682            0   -3.0535967  0.081892724   -3.0527932   0.15850697   -3.0505644   0.23566504   -3.0487134   0.31417766   -3.0475368   0.40539878   -3.0468613   0.48148317   -3.0466007   0.57315207   -3.0464865   0.65766751   -3.0465219   0.73980151   -3.0467138   0.81434804   -3.0471335   0.89014605     -3.04796            1    -3.048775 
100   0.17212144   0.13595312 0.0052641688  0.050746802  0.068248423 0.0071102342 0.0022892497    2.4224471            0   -3.0535967  0.082708696   -3.0527926   0.16002503   -3.0505386   0.23777136   -3.0486794   0.31670967    -3.047512   0.40671096    -3.046855   0.48356094    -3.046596   0.57396852   -3.0464865   0.65814054   -3.0465239   0.74026592   -3.0467193   0.81578342   -3.0471539   0.89235869   -3.0480063            1   -3.0487757 
110   0.15498164    0.1246342 0.0049857435  0.040230697  0.062495575 0.0071102703 0.0022897722    2.4277307            0   -3.0535968  0.083371227    -3.052794    0.1612974   -3.0505183   0.23956474   -3.0486515   0.31888688   -3.0474915     0.407886   -3.0468496   0.48540211    -3.046592   0.57477007   -3.0464865    0.6586796   -3.0465257   0.74081669   -3.0467243   0.81717043   -3.0471725   0.89442371   -3.0480475            1   -3.0487763 
120   0.14277022   0.11360318 0.0047347756  0.032201149   0.05758832 0.0071103322  0.002290192    2.4324739            0   -3.0535968  0.083940067   -3.0527973   0.16242992   -3.0505017   0.24118623   -3.0486273   0.32087355   -3.0474734   0.40899329   -3.0468447   0.48712488   -3.0465883   0.57557771   -3.0464864   0.65927266   -3.0465275   0.74143607   -3.0467292   0.81855614   -3.0471905   0.89643798    -3.048086            1   -3.0487766 
130   0.42486991  0.097316104   0.00438904  0.023201243  0.053350588 0.0071105479 0.0022907973    2.4389586            0   -3.0535968   0.08465391    -3.052805   0.16392375   -3.0504824   0.24336803   -3.0485963   0.32357554   -3.0474497   0.41054846   -3.0468381   0.48953103   -3.0465832   0.57678668   -3.0464863   0.66022555   -3.0465299   0.74244855   -3.0467364   0.82061895   -3.0472166   0.89937369   -3.0481402            1   -3.0487771 
140   0.11513562  0.087915267 0.0041893989  0.019066113  0.048078687 0.0071105259 0.0022909538    2.4425859            0   -3.0535968  0.085006676   -3.0528125   0.16471903   -3.0504742   0.24456007   -3.0485806   0.32507077   -3.0474374   0.41143741   -3.0468347   0.49090115   -3.0465808   0.57752072   -3.0464863   0.66083876   -3.0465314   0.74311048   -3.0467407   0.82185551   -3.0472321   0.90110714   -3.0481711            1   -3.0487773 
150   0.14296787  0.079304992 0.0040132137   0.01599106  0.045574616 0.0071105995  0.002291161    2.4456819            0   -3.0535969  0.085279494   -3.0528202   0.16537015   -3.0504689   0.24555432   -3.0485683    0.3263292   -3.0474273   0.41220297   -3.0468319   0.49207762   -3.0465786   0.57817907   -3.0464863   0.66140798   -3.0465326   0.74373029   -3.0467447   0.82294534   -3.0472458   0.90261928   -3.0481976            1   -3.0487774 
160   0.15198447  0.071700028 0.0038514881  0.013597051  0.042843178 0.0071106661 0.0022913327     2.448527            0   -3.0535969  0.085488427   -3.0528284     0.165909   -3.0504659   0.24639483   -3.0485585   0.32740265    -3.047419   0.41286019   -3.0468295   0.49309239   -3.0465767   0.57875518   -3.0464862   0.66191352   -3.0465337   0.74428414   -3.0467483    0.8239273   -3.0472582    0.9039713    -3.048221            1   -3.0487775 
170   0.10815299   0.06416855 0.0036932091  0.011599506  0.040453152 0.0071107242 0.0022914794     2.451263            0   -3.0535969  0.085655083   -3.0528376   0.16638137   -3.0504646   0.24714907   -3.0485503    0.3283753   -3.0474118   0.41346215   -3.0468274    0.4940249   -3.0465751   0.57929597   -3.0464862   0.66239677   -3.0465348     0.744817   -3.0467518   0.82486116   -3.0472703   0.90522675   -3.0482428            1   -3.0487776 
180  0.090422038  0.057783941  0.003538059 0.0099396029  0.038324634 0.0071107833 0.0022916132    2.4539542            0   -3.0535969  0.085779538   -3.0528475   0.16678497   -3.0504649   0.24781202   -3.0485438   0.32923955   -3.0474056   0.41399803   -3.0468256   0.49486194   -3.0465736   0.57978521   -3.0464861   0.66283865   -3.0465357   0.74530718    -3.046755   0.82571814   -3.0472818   0.90640189    -3.048263            1   -3.0487777 
190  0.082389485  0.052481877 0.0034034323 0.0087073976  0.036782651 0.0071108334 0.0022917193    2.4562199            0   -3.0535969  0.085859061   -3.0528568   0.16709177   -3.0504665   0.24833166   -3.0485392   0.32992509   -3.0474009   0.41442922   -3.0468242   0.49553762   -3.0465724    0.5801907   -3.0464861   0.66321226   -3.0465365   0.74572436   -3.0467578   0.82643291   -3.0472914   0.90737862   -3.0482796            1   -3.0487778 
200  0.082085931   0.04766882  0.003278658 0.0077175915  0.035350295 0.0071108791 0.0022918106    2.4582627            0   -3.0535969  0.085910694   -3.0528659   0.16734102    -3.050469   0.24876721    -3.048536   0.33050648   -3.0473971   0.41479964    -3.046823   0.49611998   -3.0465714   0.58054837   -3.0464861   0.66354742   -3.0465372   0.74610067   -3.0467602   0.82706675   -3.0472999   0.90824085    -3.048294            1   -3.0487779 
210  0.076297058  0.043495867 0.0031652348 0.0069298136  0.034221371 0.0071109177 0.0022918858    2.4600727            0   -3.0535969  0.085938821   -3.0528746   0.16753768   -3.0504722   0.24912377   -3.0485338   0.33098864   -3.0473942   0.41511006   -3.0468222   0.49661066   -3.0465706    0.5808556    -3.046486   0.66383959   -3.0465379   0.74643055   -3.0467623   0.82761516   -3.0473073   0.90898432   -3.0483063            1   -3.0487779 
220  0.071818051  0.039575696 0.0030534007 0.0062446978  0.033203088  0.007110954 0.0022919542    2.4618178            0    -3.053597  0.085950362   -3.0528835   0.16770506    -3.050476   0.24943989   -3.0485323   0.33142194   -3.0473917   0.41539158   -3.0468214   0.49705841   -3.0465699   0.58114075    -3.046486   0.66411431   -3.0465384   0.74674239   -3.0467643   0.82812804   -3.0473142   0.90967771   -3.0483177            1    -3.048778 
230  0.068219995  0.035816196 0.0029398513 0.0056316363  0.032297036 0.0071109889 0.0022920181    2.4635521            0    -3.053597  0.085946396   -3.0528928   0.16784895   -3.0504806   0.24972574   -3.0485315   0.33181997   -3.0473897   0.41565234   -3.0468208   0.49747646   -3.0465692   0.58141127    -3.046486   0.66437832    -3.046539   0.74704375   -3.0467662   0.82861912    -3.047321    0.9103401   -3.0483286            1    -3.048778 
240  0.068209182  0.032248183 0.0028259911 0.0050913576  0.031396478 0.0071110239 0.0022920788    2.4652576            0    -3.053597  0.085928187   -3.0529024   0.16796865   -3.0504859    0.2499785   -3.0485314   0.33217829    -3.047388   0.41588904   -3.0468203   0.49785934   -3.0465686   0.58166301    -3.046486   0.66462714   -3.0465395   0.74732941   -3.0467681   0.82908063   -3.0473274    0.9109613   -3.0483388            1    -3.048778 
250  0.063960713  0.029364644 0.0027271825 0.0046768827   0.03071836 0.0071110499 0.0022921248    2.4667095            0    -3.053597  0.085900467   -3.0529109    0.1680523   -3.0504911   0.25017028   -3.0485317   0.33245608   -3.0473869    0.4160738   -3.0468199   0.49816185   -3.0465682    0.5818648   -3.0464859   0.66482913   -3.0465399   0.74756282   -3.0467696   0.82945526   -3.0473327   0.91146488   -3.0483471            1   -3.0487781 
260  0.061399449  0.026460483  0.002620438 0.0042787524  0.030146555 0.0071110774 0.0022921716    2.4682523            0    -3.053597  0.085859381   -3.0529203    0.1681233   -3.0504971   0.25035074   -3.0485326   0.33272383   -3.0473859   0.41625294   -3.0468197   0.49845922   -3.0465677   0.58206582   -3.0464859   0.66503284   -3.0465403   0.74779975   -3.0467712   0.82983355   -3.0473381   0.91197289   -3.0483555            1   -3.0487781 
270  0.059050392   0.02415951 0.0025304596 0.0039796549  0.029632876 0.0071110987 0.0022922077    2.4695343            0    -3.053597  0.085816766   -3.0529283    0.1681686   -3.0505026   0.25048226   -3.0485338   0.33292439   -3.0473854   0.41638796   -3.0468195   0.49868663   -3.0465674   0.58222165   -3.0464859    0.6651927   -3.0465406   0.74798691   -3.0467724   0.83013088   -3.0473425    0.9123718   -3.0483622            1   -3.0487781 
280  0.056643716  0.021957939 0.0024385057 0.0037043757   0.02914924 0.0071111189 0.0022922416    2.4708283            0    -3.053597  0.085766103   -3.0529365    0.1682019   -3.0505085    0.2505983   -3.0485353    0.3331069   -3.0473851   0.41651142   -3.0468194   0.49889811   -3.0465671   0.58236831   -3.0464859   0.66534497   -3.0465409   0.74816639   -3.0467736   0.83041501   -3.0473467   0.91275282   -3.0483686            1   -3.0487781 
290  0.054956198  0.020033152 0.0023528862 0.0034728834  0.028721082 0.0071111371 0.0022922713    2.4720202            0    -3.053597  0.085713131   -3.0529443   0.16822195   -3.0505144   0.25069061    -3.048537   0.33325748    -3.047385   0.41661376   -3.0468194   0.49907675   -3.0465669   0.58249373   -3.0464859   0.66547679   -3.0465412   0.74832288   -3.0467747   0.83066197   -3.0473504   0.91308388   -3.0483743            1   -3.0487782 
300  0.052902912  0.018343374  0.002271889 0.0032739266  0.028393747 0.0071111525 0.0022922968    2.4731357            0    -3.053597  0.085657653   -3.0529516   0.16823111   -3.0505201    0.2507641   -3.0485389   0.33338297    -3.047385   0.41669934   -3.0468194   0.49922976   -3.0465667    0.5826024   -3.0464859   0.66559252   -3.0465414   0.74846136   -3.0467756   0.83088016   -3.0473538   0.91337643   -3.0483793            1   -3.0487782 
310  0.051216051  0.016558549 0.0021795052 0.0030678904  0.028119379 0.0071111696 0.0022923244     2.474396            0    -3.053597   0.08558882   -3.0529601   0.16823107   -3.0505269   0.25083285   -3.0485412   0.33350753   -3.0473853   0.41678456   -3.0468195   0.49938659   -3.0465666   0.58271516   -3.0464859   0.66571434   -3.0465417   0.74860843   -3.0467767   0.83111158   -3.0473575   0.91368684   -3.0483848            1   -3.0487782 
320  0.049444612  0.015157749 0.0021018738 0.0029101688  0.027863997 0.0071111823 0.0022923453    2.4754469            0    -3.053597  0.085527105   -3.0529672   0.16822314   -3.0505329   0.25087894   -3.0485435   0.33359766   -3.0473856   0.41684644   -3.0468196   0.49950429   -3.0465664   0.58280094   -3.0464859   0.66580844   -3.0465419   0.74872309   -3.0467775   0.83129181   -3.0473604   0.91392865   -3.0483891            1   -3.0487782 
330  0.049153802  0.013516371 0.0020047148  0.002729494   0.02760438 0.0071112003 0.0022923726    2.4767545            0    -3.053597  0.085445822   -3.0529762   0.16820443   -3.0505406   0.25092331   -3.0485465   0.33369373   -3.0473862    0.4169126   -3.0468198   0.49963515   -3.0465663   0.58289765   -3.0464858    0.6659163   -3.0465421   0.74885586   -3.0467785   0.83150036   -3.0473639    0.9142086   -3.0483942            1   -3.0487782 
340  0.046947291  0.012525005  0.001938631 0.0026169391  0.027492516 0.0071112081 0.0022923862    2.4776354            0    -3.053597  0.085386588   -3.0529822   0.16818473   -3.0505459   0.25094381   -3.0485487   0.33374724   -3.0473867   0.41694941     -3.04682    0.4997129   -3.0465662   0.58295597   -3.0464858   0.66598279   -3.0465423   0.74893886   -3.0467792   0.83163105   -3.0473662   0.91438436   -3.0483975            1   -3.0487782 
350   0.05026144  0.011444071 0.0018564249 0.0024857897  0.027386035 0.0071112209 0.0022924059    2.4787287            0    -3.053597  0.085311005   -3.0529898    0.1681552   -3.0505527   0.25096121   -3.0485516   0.33380343   -3.0473874   0.41698813   -3.0468202   0.49979913   -3.0465662   0.58302158   -3.0464858   0.66605891   -3.0465425   0.74903488   -3.0467799   0.83178229   -3.0473689   0.91458788   -3.0484014            1   -3.0487782 
360  0.042587262  0.011255937 0.0017964369  0.002395503  0.027095786 0.0071112232 0.0022924128     2.479525            0   -3.0535971  0.085254601   -3.0529953   0.16813024   -3.0505578   0.25096836   -3.0485539   0.33383732    -3.047388   0.41701152   -3.0468204   0.49985483   -3.0465661   0.58306464   -3.0464858   0.66610985   -3.0465426    0.7490999   -3.0467805   0.83188479   -3.0473708   0.91472591   -3.0484042            1   -3.0487782 
370  0.040965534  0.010842979 0.0017214643 0.0022887646  0.026974255 0.0071112312 0.0022924262    2.4805165            0   -3.0535971  0.085181697   -3.0530022   0.16809426   -3.0505643   0.25097035   -3.0485568   0.33387101   -3.0473888   0.41703465   -3.0468207   0.49991593   -3.0465661   0.58311264   -3.0464858   0.66616803   -3.0465427   0.74917526   -3.0467811   0.83200402   -3.0473731    0.9148868   -3.0484074            1   -3.0487783 
380  0.057138871  0.010469257 0.0016260245 0.0021602751  0.026970237 0.0071112461 0.0022924476    2.4817782            0   -3.0535971  0.085086999   -3.0530109   0.16804296   -3.0505726   0.25096381   -3.0485607   0.33390218   -3.0473899   0.41705593    -3.046821    0.4999817   -3.0465661   0.58316555   -3.0464858   0.66623418   -3.0465429   0.74926249   -3.0467819   0.83214245   -3.0473759   0.91507392   -3.0484114            1   -3.0487783 
390    0.0393408  0.009836173 0.0015590787 0.0020750787  0.026847565  0.007111248 0.0022924538     2.482659            0   -3.0535971  0.085017711    -3.053017   0.16800175   -3.0505785    0.2509519   -3.0485635   0.33391503   -3.0473908   0.41706436   -3.0468213   0.50001906   -3.0465661   0.58319651   -3.0464858   0.66627477    -3.046543   0.74931749   -3.0467824   0.83223051   -3.0473778   0.91519345    -3.048414            1   -3.0487783 
400  0.037824034 0.0096541382 0.0014995305 0.0020008468  0.026739166 0.0071112524 0.0022924617    2.4834469            0   -3.0535971  0.084956661   -3.0530224   0.16796412   -3.0505839   0.25093863   -3.0485661   0.33392262   -3.0473916   0.41706926   -3.0468216   0.50004791   -3.0465661   0.58322106   -3.0464858   0.66630785   -3.0465431   0.74936292   -3.0467829   0.83230332   -3.0473794   0.91529228   -3.0484163            1   -3.0487783 
410  0.039494175 0.0093377737  0.001442606 0.0019318129  0.026718136 0.0071112575   0.00229247    2.4841997            0   -3.0535971  0.084897157   -3.0530275   0.16792573   -3.0505891   0.25092237   -3.0485686   0.33392538   -3.0473924   0.41707069   -3.0468218   0.50007099   -3.0465661   0.58324133   -3.0464858   0.66633639   -3.0465432   0.74940304   -3.0467833   0.83236808   -3.0473809   0.91538047   -3.0484184            1   -3.0487783 
420  0.034864171  0.008912282 0.0013965668 0.0018773094  0.026662061 0.0071112585 0.0022924735    2.4848082            0   -3.0535971  0.084848021   -3.0530317   0.16789279   -3.0505933   0.25090656   -3.0485707   0.33392432   -3.0473931   0.41706943   -3.0468221   0.50008643   -3.0465661   0.58325541   -3.0464858   0.66635727   -3.0465432   0.74943313   -3.0467837   0.83241706   -3.0473821   0.91544742   -3.0484201            1   -3.0487783 
430  0.033824575 0.0086218155  0.001348097 0.0018202995  0.026629914 0.0071112614  0.002292479    2.4854519            0   -3.0535971  0.084796584    -3.053036    0.1678576   -3.0505977   0.25088851   -3.0485729   0.33392119   -3.0473939   0.41706671   -3.0468223   0.50010038   -3.0465662   0.58326861   -3.0464858    0.6663776   -3.0465433   0.74946293    -3.046784   0.83246571   -3.0473834   0.91551398   -3.0484218            1   -3.0487783 
440  0.042724446 0.0082487068 0.0012944599 0.0017580105  0.026681322 0.0071112671 0.0022924874    2.4861661            0   -3.0535971  0.084739188   -3.0530408   0.16781725   -3.0506027   0.25086627   -3.0485754   0.33391479   -3.0473947   0.41706155   -3.0468226   0.50011278   -3.0465662   0.58328103   -3.0464858   0.66639795   -3.0465434   0.74949355   -3.0467844   0.83251612   -3.0473847   0.91558314   -3.0484237            1   -3.0487783 
450   0.03153699 0.0081141151 0.0012521476   0.00170879  0.026552789 0.0071112662 0.0022924886    2.4867332            0   -3.0535971  0.084694347   -3.0530446   0.16778519   -3.0506066   0.25084774   -3.0485774   0.33390825   -3.0473954   0.41705646   -3.0468228   0.50012077   -3.0465662   0.58328956   -3.0464858   0.66641269   -3.0465434   0.74951618   -3.0467847    0.8325535   -3.0473857   0.91563448   -3.0484251            1   -3.0487783 
460  0.030479325 0.0077854982 0.0012076831  0.001657805  0.026541568 0.0071112682 0.0022924926    2.4873298            0   -3.0535971  0.084646406   -3.0530485   0.16775009   -3.0506108   0.25082638   -3.0485795   0.33389907   -3.0473961   0.41704937   -3.0468231   0.50012695   -3.0465663   0.58329688   -3.0464858   0.66642662   -3.0465435   0.74953832    -3.046785    0.8325905   -3.0473868   0.91568551   -3.0484266            1   -3.0487783 
470   0.02948069 0.0075381072 0.0011656111  0.001609506  0.026518379 0.0071112699 0.0022924962    2.4878975            0   -3.0535971  0.084601212   -3.0530523    0.1677165   -3.0506147    0.2508052   -3.0485816   0.33388902   -3.0473968   0.41704168   -3.0468233   0.50013123   -3.0465663   0.58330269   -3.0464858   0.66643865   -3.0465435   0.74955797   -3.0467853   0.83262354   -3.0473878   0.91573117    -3.048428            1   -3.0487783 
480  0.028809112 0.0073119781 0.0011234717 0.0015610979   0.02650467  0.007111272 0.0022925002    2.4884693            0   -3.0535971  0.084555994    -3.053056   0.16768239   -3.0506187   0.25078302   -3.0485836   0.33387761   -3.0473976   0.41703301   -3.0468235   0.50013404   -3.0465663   0.58330741   -3.0464858    0.6664496   -3.0465436   0.74957642   -3.0467856   0.83265481   -3.0473889   0.91577448   -3.0484293            1   -3.0487783 
490  0.027927813 0.0070679301 0.0010852993 0.0015173435  0.026491197 0.0071112734 0.0022925032    2.4889897            0   -3.0535971   0.08451488   -3.0530593   0.16765092   -3.0506223   0.25076196   -3.0485855   0.33386599   -3.0473982   0.41702421   -3.0468237   0.50013524   -3.0465664   0.58331071   -3.0464858   0.66645855   -3.0465436   0.74959207   -3.0467858   0.83268159   -3.0473898   0.91581169   -3.0484306            1   -3.0487783 
500  0.027037123   0.00681971 0.0010472695 0.0014737033   0.02647876 0.0071112747 0.0022925061    2.4895112            0   -3.0535971  0.084473924   -3.0530627   0.16761919   -3.0506259   0.25074021   -3.0485874   0.33385338   -3.0473989   0.41701469   -3.0468239   0.50013532   -3.0465664   0.58331317   -3.0464858   0.66646664   -3.0465437   0.74960674   -3.0467861   0.83270692   -3.0473907   0.91584697   -3.0484318            1   -3.0487783 
510  0.026383184  0.006553314 0.0010090285 0.0014297778   0.02648162 0.0071112763 0.0022925093    2.4900389            0   -3.0535971   0.08443272    -3.053066    0.1675869   -3.0506295   0.25071761   -3.0485893   0.33383969   -3.0473996   0.41700437   -3.0468242   0.50013432   -3.0465664   0.58331485   -3.0464858   0.66647397   -3.0465437    0.7496206   -3.0467863   0.83273109   -3.0473916   0.91588074    -3.048433            1   -3.0487783 
520  0.025705056 0.0063598363 0.00097301957 0.0013880629  0.026460254 0.0071112774 0.0022925117    2.4905397            0   -3.0535971  0.084394198   -3.0530691   0.16755644   -3.0506329   0.25069592   -3.0485911   0.33382616   -3.0474002    0.4169942   -3.0468244   0.50013257   -3.0465665   0.58331584   -3.0464858   0.66648025   -3.0465438   0.74963294   -3.0467866   0.83275275   -3.0473924   0.91591104   -3.0484341            1   -3.0487783 
530  0.048200803 0.0059920714 0.00092813757 0.0013363393  0.026582451 0.0071112837 0.0022925197     2.491168            0   -3.0535971  0.084345806    -3.053073   0.16751769   -3.0506372   0.25066776   -3.0485934   0.33380788    -3.047401   0.41698045   -3.0468246   0.50012902   -3.0465665   0.58331604   -3.0464858   0.66648709   -3.0465438   0.74964726   -3.0467869   0.83277827   -3.0473935    0.9159469   -3.0484355            1   -3.0487783 
540  0.024339328 0.0058397061 0.00089135113 0.0012931455  0.026439405 0.0071112801 0.0022925175     2.491689            0   -3.0535971   0.08430682   -3.0530762   0.16748628   -3.0506407   0.25064461   -3.0485952   0.33379259   -3.0474017     0.416969   -3.0468248   0.50012551   -3.0465665   0.58331579   -3.0464858    0.6664922   -3.0465439   0.74965837   -3.0467871   0.83279816   -3.0473944   0.91597484   -3.0484367            1   -3.0487783 
550  0.023584542 0.0055572469 0.00084660704 0.0012406805  0.026426941 0.0071112816 0.0022925206    2.4923283            0   -3.0535971  0.084259174     -3.05308   0.16744746    -3.050645   0.25061553   -3.0485975    0.3337728   -3.0474025   0.41695419   -3.0468251   0.50012007   -3.0465666    0.5833146   -3.0464858   0.66649757   -3.0465439   0.74967099   -3.0467875   0.83282107   -3.0473954   0.91600714   -3.0484381            1   -3.0487783 
560  0.023673336 0.0052691356 0.00081023822  0.001197848   0.02643082 0.0071112831 0.0022925234    2.4928532            0   -3.0535971  0.084220358   -3.0530832   0.16741555   -3.0506485   0.25059126   -3.0485994   0.33375589   -3.0474032   0.41694153   -3.0468253    0.5001148   -3.0465666     0.583313   -3.0464858   0.66650131    -3.046544   0.74968057   -3.0467877   0.83283873   -3.0473963   0.91603213   -3.0484392            1   -3.0487783 
570  0.022394447 0.0051513678 0.00077560226  0.001156614  0.026404304 0.0071112841 0.0022925255      2.49336            0   -3.0535971  0.084184124   -3.0530861   0.16738563   -3.0506519   0.25056831   -3.0486011   0.33373976   -3.0474038   0.41692952   -3.0468255   0.50010953   -3.0465667   0.58331134   -3.0464858   0.66650466    -3.046544   0.74968937    -3.046788   0.83285493   -3.0473971   0.91605499   -3.0484403            1   -3.0487783 
580   0.02187881   0.00492384 0.00074709541 0.0011226885  0.026395928 0.0071112851 0.0022925274    2.4937801            0   -3.0535971  0.084153905   -3.0530886   0.16736046   -3.0506546    0.2505488   -3.0486026   0.33372577   -3.0474044   0.41691908   -3.0468257   0.50010457   -3.0465667   0.58330949   -3.0464858   0.66650698   -3.0465441    0.7496962   -3.0467882   0.83286772   -3.0473978   0.91607313   -3.0484412            1   -3.0487783 
590   0.02138962 0.0047771088 0.00072081369  0.001091164  0.026381554  0.007111286 0.0022925292    2.4941718            0   -3.0535971   0.08412637   -3.0530908   0.16733746   -3.0506572   0.25053085    -3.048604   0.33371282   -3.0474049   0.41690945   -3.0468258   0.50009985   -3.0465667   0.58330769   -3.0464858     0.666509   -3.0465441   0.74970232   -3.0467884   0.83287921   -3.0473985    0.9160894    -3.048442            1   -3.0487783 
600  0.020909975 0.0046311404 0.00069197784  0.001056385  0.026368627 0.0071112872 0.0022925313    2.4946061            0   -3.0535971  0.084096313   -3.0530933   0.16731226     -3.05066   0.25051105   -3.0486055   0.33369843   -3.0474054   0.41689876    -3.046826   0.50009443   -3.0465667   0.58330556   -3.0464858   0.66651105   -3.0465442   0.74970885   -3.0467886   0.83289149   -3.0473992   0.91610677   -3.0484429            1   -3.0487783 
610  0.020423547 0.0044660648 0.00066684962 0.0010260085  0.026353998 0.0071112881  0.002292533    2.4949882            0   -3.0535971  0.084070062   -3.0530954   0.16729013   -3.0506624   0.25049356   -3.0486068   0.33368559   -3.0474059   0.41688923   -3.0468261   0.50008942   -3.0465668    0.5833035   -3.0464858   0.66651265   -3.0465442   0.74971433   -3.0467888    0.8329019   -3.0473998   0.91612152   -3.0484437            1   -3.0487783 
620  0.020000032 0.0042949124 0.00064397088 0.00099828686  0.026343779 0.0071112891 0.0022925347    2.4953395            0   -3.0535971  0.084046151   -3.0530974    0.1672699   -3.0506646   0.25047748    -3.048608   0.33367369   -3.0474063   0.41688041   -3.0468263   0.50008467   -3.0465668   0.58330149   -3.0464858   0.66651397   -3.0465442    0.7497192   -3.0467889   0.83291118   -3.0474004   0.91613468   -3.0484445            1   -3.0487783 
630  0.019554062 0.0041776939 0.00062081415 0.00097000161  0.026325796   0.00711129 0.0022925363    2.4956992            0   -3.0535971  0.084022231   -3.0530994   0.16724963   -3.0506669   0.25046132   -3.0486092   0.33366171   -3.0474068   0.41687155   -3.0468264   0.50007984   -3.0465668   0.58329947   -3.0464858    0.6665153   -3.0465443   0.74972408   -3.0467891   0.83292045    -3.047401   0.91614777   -3.0484452            1   -3.0487783 
640  0.019112955  0.004031427 0.0005980291 0.00094213308  0.026310118  0.007111291  0.002292538    2.4960566            0   -3.0535971  0.083998643   -3.0531013   0.16722957   -3.0506691   0.25044525   -3.0486104   0.33364972   -3.0474072   0.41686269   -3.0468265   0.50007491   -3.0465668   0.58329735   -3.0464858    0.6665165   -3.0465443   0.74972878   -3.0467893   0.83292941   -3.0474016   0.91616043    -3.048446            1   -3.0487783 
650  0.024161546 0.0038115834 0.00057169976 0.00090992342  0.026321063 0.0071112932  0.002292541    2.4964742            0   -3.0535971  0.083971272   -3.0531035    0.1672062   -3.0506717   0.25042644   -3.0486118   0.33363559   -3.0474077   0.41685227   -3.0468267     0.500069   -3.0465668   0.58329476   -3.0464858   0.66651776   -3.0465443   0.74973409   -3.0467895    0.8329396   -3.0474023   0.91617483   -3.0484469            1   -3.0487783 
660  0.018269902 0.0037718387 0.00055346242 0.00088726656  0.026275303 0.0071112933 0.0022925416     2.496768            0   -3.0535971  0.083952793   -3.0531051   0.16719045   -3.0506735   0.25041374   -3.0486127   0.33362608    -3.047408    0.4168453   -3.0468268   0.50006505   -3.0465669   0.58329311   -3.0464858   0.66651874   -3.0465444   0.74973784   -3.0467897   0.83294665   -3.0474028   0.91618471   -3.0484475            1   -3.0487783 
670  0.017872685 0.0036483967 0.00053416107 0.00086340852  0.026257436 0.0071112943 0.0022925431    2.4970814            0   -3.0535971  0.083932969   -3.0531067   0.16717347   -3.0506754       0.2504   -3.0486137   0.33361572   -3.0474084    0.4168377   -3.0468269   0.50006067   -3.0465669   0.58329122   -3.0464858   0.66651967   -3.0465444   0.74974171   -3.0467898   0.83295402   -3.0474034   0.91619506   -3.0484481            1   -3.0487783 
680  0.025331341 0.0035601267 0.00051162122 0.00083532779  0.026258645 0.0071112966 0.0022925461    2.4974524            0   -3.0535971  0.083910084   -3.0531087   0.16715387   -3.0506776   0.25038411   -3.0486149   0.33360374   -3.0474088   0.41682895    -3.046827   0.50005561   -3.0465669   0.58328909   -3.0464858    0.6665208   -3.0465444   0.74974628     -3.04679   0.83296262    -3.047404   0.91620706   -3.0484489            1   -3.0487783 
690  0.016951479 0.0033657823 0.00048923954 0.00080761251  0.026211948 0.0071112969 0.0022925469    2.4978248            0   -3.0535971   0.08388701   -3.0531106   0.16713401   -3.0506799   0.25036796   -3.0486161   0.33359146   -3.0474092   0.41681997   -3.0468271   0.50005033   -3.0465669   0.58328679   -3.0464858   0.66652181   -3.0465445   0.74975074   -3.0467902   0.83297107   -3.0474047   0.91621889   -3.0484497            1   -3.0487783 
700  0.016439005 0.0032119427 0.00046460731 0.00077685174  0.026183349 0.0071112984 0.0022925492    2.4982417            0   -3.0535971    0.0838619   -3.0531127   0.16711239   -3.0506823   0.25035034   -3.0486174   0.33357808   -3.0474097   0.41681024   -3.0468272   0.50004461   -3.0465669   0.58328438   -3.0464858   0.66652302   -3.0465445   0.74975573   -3.0467905   0.83298042   -3.0474054   0.91623187   -3.0484506            1   -3.0487783 
710   0.02214682 0.0058373311 0.00043861525 0.00074432158   0.02616081 0.0071113003 0.0022925518     2.498688            0   -3.0535971   0.08383493   -3.0531149   0.16708911   -3.0506849   0.25033129   -3.0486188   0.33356353   -3.0474102   0.41679964   -3.0468274   0.50003827   -3.0465669   0.58328164   -3.0464858   0.66652417   -3.0465446   0.74976094   -3.0467907   0.83299023   -3.0474062   0.91624553   -3.0484515            1   -3.0487784 
720  0.015480321 0.0030047048 0.00041977243 0.00072057238  0.026122944 0.0071113016 0.0022925535    2.4990204            0   -3.0535971  0.083816598   -3.0531166   0.16707335   -3.0506868   0.25031844   -3.0486198   0.33355385   -3.0474105   0.41679274   -3.0468275   0.50003433   -3.0465669   0.58328023   -3.0464858   0.66652548   -3.0465446   0.74976509   -3.0467909   0.83299761   -3.0474067   0.91625556   -3.0484522            1   -3.0487784 
730  0.015124121 0.0028812755 0.0004035657 0.00070014221  0.026098427 0.0071113029 0.0022925552    2.4993083            0   -3.0535971   0.08380006    -3.053118   0.16705907   -3.0506884   0.25030674   -3.0486207   0.33354494   -3.0474108   0.41678632   -3.0468276   0.50003053    -3.046567    0.5832787   -3.0464858   0.66652639   -3.0465447   0.74976852    -3.046791   0.83300388   -3.0474073   0.91626416   -3.0484529            1   -3.0487784 
740   0.01476529  0.002700008 0.00038703929 0.00067929086  0.026073958 0.0071113043  0.002292557    2.4996053            0   -3.0535971  0.083783004   -3.0531194    0.1670443   -3.0506901   0.25029463   -3.0486215   0.33353568   -3.0474112   0.41677966   -3.0468276   0.50002656    -3.046567    0.5832771   -3.0464858   0.66652729   -3.0465447   0.74977204   -3.0467912   0.83301031   -3.0474078   0.91627298   -3.0484535            1   -3.0487784 
750  0.014419994 0.0026239232 0.00037183155 0.00066003614  0.026047565 0.0071113056 0.0022925587    2.4998835            0   -3.0535971  0.083767669   -3.0531207   0.16703104   -3.0506917   0.25028377   -3.0486224   0.33352742   -3.0474114   0.41677378   -3.0468277   0.50002312    -3.046567   0.58327582   -3.0464858    0.6665283   -3.0465447   0.74977543   -3.0467914   0.83301635   -3.0474083   0.91628118   -3.0484541            1   -3.0487784 
760  0.014050895  0.002567259 0.00035635923 0.00064039117  0.026017104  0.007111307 0.0022925605    2.5001708            0   -3.0535971  0.083752148   -3.0531221   0.16701763   -3.0506932   0.25027277   -3.0486232   0.33351908   -3.0474117   0.41676787   -3.0468278   0.50001968    -3.046567   0.58327461   -3.0464858   0.66652942   -3.0465448   0.74977898   -3.0467915    0.8330226   -3.0474088    0.9162896   -3.0484547            1   -3.0487784 
770  0.014996678 0.0025042263 0.00034071799 0.00062049211  0.025988446 0.0071113085 0.0022925625    2.5004657            0   -3.0535971  0.083736433   -3.0531234   0.16700404   -3.0506948   0.25026163    -3.048624   0.33351064    -3.047412   0.41676191   -3.0468279   0.50001624    -3.046567   0.58327343   -3.0464858   0.66653062   -3.0465448   0.74978266   -3.0467917     0.833029   -3.0474094   0.91629821   -3.0484553            1   -3.0487784 
780  0.015104383 0.0023543143 0.00032900808 0.00060562239  0.025967074 0.0071113097 0.0022925639    2.5006886            0   -3.0535971  0.083724272   -3.0531245   0.16699348   -3.0506961   0.25025297   -3.0486247   0.33350402   -3.0474122   0.41675721   -3.0468279   0.50001347    -3.046567   0.58327243   -3.0464858   0.66653144   -3.0465448   0.74978538   -3.0467918   0.83303382   -3.0474098   0.91630471   -3.0484558            1   -3.0487784 
790   0.01561242  0.002263399 0.00031485681 0.00058757045  0.025937178 0.0071113113 0.0022925658    2.5009627            0   -3.0535971  0.083709911   -3.0531257   0.16698105   -3.0506975   0.25024278   -3.0486254   0.33349629   -3.0474125   0.41675179    -3.046828   0.50001036    -3.046567   0.58327142   -3.0464858   0.66653262   -3.0465449   0.74978885    -3.046792   0.83303979   -3.0474103   0.91631268   -3.0484564            1   -3.0487784 
800  0.012787589 0.0022474588 0.00030357791 0.00057311822   0.02590565 0.0071113124 0.0022925673    2.5011849            0   -3.0535971   0.08369867   -3.0531267   0.16697134   -3.0506987   0.25023483   -3.0486261   0.33349031   -3.0474127   0.41674764    -3.046828   0.50000802    -3.046567   0.58327076   -3.0464858    0.6665337   -3.0465449   0.74979174   -3.0467921   0.83304466   -3.0474107   0.91631913   -3.0484569            1   -3.0487784 
810  0.012459326  0.002166489 0.00029041313 0.00055625601    0.0258738  0.007111314 0.0022925691    2.5014475            0   -3.0535971  0.083685295   -3.0531279   0.16695977   -3.0507001   0.25022535   -3.0486268   0.33348315    -3.047413   0.41674266   -3.0468281   0.50000521    -3.046567   0.58326995   -3.0464858   0.66653495   -3.0465449   0.74979515   -3.0467923   0.83305042   -3.0474112   0.91632676   -3.0484575            1   -3.0487784 
820  0.012145539 0.0020840174 0.00027814199 0.00054051075  0.025842626 0.0071113155 0.0022925709    2.5016961            0   -3.0535971  0.083672781    -3.053129   0.16694895   -3.0507014   0.25021649   -3.0486274   0.33347646   -3.0474132   0.41673804   -3.0468281   0.50000261    -3.046567   0.58326924   -3.0464858   0.66653619    -3.046545   0.74979842   -3.0467925    0.8330559   -3.0474117   0.91633398    -3.048458            1   -3.0487784 
830   0.01181522 0.0020029858 0.00026533652 0.00052403912  0.025808191 0.0071113171 0.0022925729    2.5019599            0   -3.0535971  0.083659717   -3.0531302   0.16693765   -3.0507027   0.25020725   -3.0486281   0.33346951   -3.0474134   0.41673326   -3.0468282   0.49999996    -3.046567   0.58326859   -3.0464858   0.66653758    -3.046545   0.74980195   -3.0467926   0.83306175   -3.0474122   0.91634165   -3.0484586            1   -3.0487784 
840  0.012460559 0.0018969994 0.00025394985 0.0005093765  0.025779341 0.0071113187 0.0022925748    2.5021982            0   -3.0535971  0.083647941   -3.0531312   0.16692746   -3.0507039   0.25019892   -3.0486288   0.33346323   -3.0474136   0.41672895   -3.0468283   0.49999758    -3.046567   0.58326802   -3.0464858   0.66653886    -3.046545   0.74980516   -3.0467928   0.83306705   -3.0474126   0.91634859   -3.0484591            1   -3.0487784 
850  0.015841651 0.0027000095 0.00024318318 0.00049540332  0.025746141 0.0071113203 0.0022925766    2.5024285            0   -3.0535971  0.083637245   -3.0531322   0.16691826   -3.0507051   0.25019142   -3.0486294   0.33345767   -3.0474138   0.41672522   -3.0468283   0.49999563    -3.046567   0.58326775   -3.0464858   0.66654031   -3.0465451   0.74980841   -3.0467929   0.83307226   -3.0474131   0.91635532   -3.0484596            1   -3.0487784 
860  0.011026922 0.0018067734 0.00023546259 0.00048543538  0.025720169 0.0071113213 0.0022925778    2.5025947            0   -3.0535971  0.083629068   -3.0531329   0.16691117   -3.0507059   0.25018563   -3.0486298   0.33345331    -3.047414   0.41672224   -3.0468283     0.499994    -3.046567   0.58326738   -3.0464858   0.66654124   -3.0465451   0.74981069    -3.046793   0.83307599   -3.0474134   0.91636019     -3.04846            1   -3.0487784 
870  0.010799422 0.0017579638 0.00022726047 0.00047478121  0.025693441 0.0071113226 0.0022925793    2.5027743            0   -3.0535971  0.083620628   -3.0531337   0.16690389   -3.0507068    0.2501797   -3.0486303   0.33344888   -3.0474141   0.41671927   -3.0468284   0.49999244    -3.046567   0.58326715   -3.0464858   0.66654236   -3.0465451   0.74981324   -3.0467931   0.83308007   -3.0474137   0.91636546   -3.0484604            1   -3.0487784 
880  0.010553233 0.0017169432 0.00021863987 0.00046354892  0.025663716 0.0071113239 0.0022925808    2.5029658            0   -3.0535971  0.083611773   -3.0531345   0.16689627   -3.0507077    0.2501735   -3.0486307   0.33344428   -3.0474143    0.4167162   -3.0468284   0.49999085    -3.046567   0.58326697   -3.0464858   0.66654362   -3.0465451     0.749816   -3.0467933   0.83308445   -3.0474141    0.9163711   -3.0484608            1   -3.0487784 
890  0.017215502 0.0030466596 0.00020661177 0.00044781754  0.025624219  0.007111326 0.0022925832    2.5032381            0   -3.0535971  0.083599514   -3.0531356   0.16688573   -3.0507091   0.25016494   -3.0486314   0.33343797   -3.0474145   0.41671204   -3.0468284   0.49998877    -3.046567   0.58326687   -3.0464858   0.66654553   -3.0465452   0.74982002   -3.0467934   0.83309075   -3.0474147   0.91637914   -3.0484614            1   -3.0487784 
900  0.010015928 0.0015886281 0.00019977897 0.00043888506  0.025596125 0.0071113271 0.0022925844    2.5033946            0   -3.0535971  0.083592148   -3.0531362   0.16687936   -3.0507098   0.25015977   -3.0486318    0.3334341   -3.0474146   0.41670946   -3.0468285   0.49998742    -3.046567    0.5832667   -3.0464858   0.66654655   -3.0465452   0.74982229   -3.0467936   0.83309436    -3.047415   0.91638379   -3.0484618            1   -3.0487784 
901 0.0099947689 0.0016001414 0.00019902436 0.00043788719  0.025592866 0.0071113273 0.0022925846    2.5034123            0   -3.0535971  0.083591423   -3.0531363   0.16687875   -3.0507099   0.25015927   -3.0486318   0.33343374   -3.0474146   0.41670923   -3.0468285   0.49998732    -3.046567   0.58326672   -3.0464858    0.6665467   -3.0465452   0.74982257   -3.0467936   0.83309477    -3.047415   0.91638431   -3.0484618            1   -3.0487784 
Climbing replica = 8
Step MaxReplicaForce MaxAtomForce GradV0 GradV1 GradVc EBF EBR RDT RD1 PE1 RD2 PE2 ... RDN PEN
901  0.025613812  0.024015097 0.00019902436 0.00043788719  0.025592866 0.0071113273 0.0022925846    2.5034123            0   -3.0535971  0.083591423   -3.0531363   0.16687875   -3.0507099   0.25015927   -3.0486318   0.33343374   -3.0474146   0.41670923   -3.0468285   0.49998732    -3.046567   0.58326672   -3.0464858    0.6665467   -3.0465452   0.74982257   -3.0467936   0.83309477    -3.047415   0.91638431   -3.0484618            1   -3.0487784 
911  0.042026741  0.021975579 0.00018844199 0.00042400501  0.024429845 0.0071114413 0.0022926989     2.503655            0   -3.0535971  0.083584077   -3.0531372   0.16687973   -3.0507107   0.25016881    -3.048632    0.3334521   -3.0474145   0.41673626   -3.0468283   0.50002248   -3.0465669   0.58402447   -3.0464857   0.66658254   -3.0465453   0.74985183   -3.0467939   0.83311716   -3.0474157   0.91639898   -3.0484625            1   -3.0487784 
921  0.022040774  0.020160983 0.00018065379 0.00041366945  0.021715074  0.007111514 0.0022927717    2.5038391            0   -3.0535971  0.083588932   -3.0531375    0.1669031   -3.0507105   0.25021044   -3.0486314   0.33351243    -3.047414   0.41681508    -3.046828    0.5001193   -3.0465667   0.58455607   -3.0464856   0.66667547   -3.0465455   0.74992302   -3.0467944   0.83316632   -3.0474166   0.91642515   -3.0484632            1   -3.0487784 
931  0.031472706  0.018828484 0.00017215184 0.00040238744  0.022046921 0.0071115869 0.0022928449    2.5040395            0   -3.0535971  0.083602517   -3.0531377   0.16694722   -3.0507097   0.25028467   -3.0486301    0.3336173   -3.0474129   0.41695045   -3.0468273    0.5002848   -3.0465664   0.58511214   -3.0464855   0.66683294   -3.0465458    0.7500426   -3.0467951    0.8332478    -3.047418   0.91646748   -3.0484641            1   -3.0487784 
941  0.018751976  0.017300693 0.00016538165 0.00039334364  0.018450018 0.0071116354 0.0022928935    2.5042018            0   -3.0535971  0.083620483   -3.0531377   0.16699639   -3.0507086   0.25036454   -3.0486287   0.33372841   -3.0474118   0.41709269   -3.0468266     0.500458    -3.046566    0.5855378   -3.0464855   0.66699683   -3.0465461   0.75016666   -3.0467958   0.83333198   -3.0474193   0.91651094   -3.0484649            1   -3.0487784 
951  0.016990768  0.015908944 0.00015805733 0.00038351986  0.016937734  0.007111684 0.0022929424    2.5043785            0   -3.0535971  0.083645767   -3.0531376    0.1670614   -3.0507071   0.25046868   -3.0486267   0.33387229   -3.0474104   0.41727623   -3.0468257   0.50068113   -3.0465656   0.58598093   -3.0464854   0.66720765   -3.0465465   0.75032603   -3.0467968   0.83343994   -3.0474209   0.91656666   -3.0484659            1   -3.0487784 
961  0.015611904  0.014508161 0.00015030171 0.00037305703  0.015461054 0.0071117295  0.002292988     2.504568            0   -3.0535971  0.083678807   -3.0531373   0.16714233   -3.0507051   0.25059684   -3.0486243   0.33404836   -3.0474086   0.41750017   -3.0468246   0.50095296    -3.046565   0.58643084   -3.0464854   0.66746414    -3.046547    0.7505198   -3.0467979   0.83357113   -3.0474227   0.91663446   -3.0484671            1   -3.0487784 
971  0.014381833  0.013353735 0.00014337129 0.00036364447  0.014209201 0.0071117651 0.0022930238    2.5047397            0   -3.0535971  0.083713303   -3.0531369     0.167224   -3.0507031   0.25072512   -3.0486219   0.33422386   -3.0474069   0.41772288   -3.0468236   0.50122297   -3.0465645   0.58681576   -3.0464853   0.66771873   -3.0465475   0.75071208    -3.046799   0.83370131   -3.0474246   0.91670189   -3.0484682            1   -3.0487784 
981  0.026288102    0.0120735 0.00013711106 0.0003550838  0.015062413 0.0071117953 0.0022930541    2.5048972            0   -3.0535971  0.083748051   -3.0531365   0.16730434    -3.050701   0.25085058   -3.0486195     0.334395   -3.0474052    0.4179397   -3.0468225   0.50148559    -3.046564    0.5871496   -3.0464853   0.66796617    -3.046548   0.75089896      -3.0468   0.83382787   -3.0474263   0.91676761   -3.0484692            1   -3.0487784 
991  0.012510891  0.011434167 0.00013156111 0.00034744227  0.012174017 0.0071118162 0.0022930751    2.5050387            0   -3.0535971  0.083781183   -3.0531362   0.16737984   -3.0506991   0.25096809   -3.0486172   0.33455499   -3.0474036   0.41814218   -3.0468216    0.5017307   -3.0465635   0.58743421   -3.0464853   0.66819713   -3.0465484   0.75107342    -3.046801   0.83394606    -3.047428   0.91682913   -3.0484702            1   -3.0487784 
1001  0.013714971  0.010404979 0.00012552291 0.00033906996   0.01135506 0.0071118381 0.0022930972    2.5051948            0   -3.0535971  0.083819374   -3.0531357   0.16746576   -3.0506969   0.25110143   -3.0486147   0.33473624   -3.0474018   0.41837137   -3.0468205   0.50200798    -3.046563   0.58773233   -3.0464853   0.66845832   -3.0465489   0.75127074   -3.0468021   0.83407979   -3.0474298   0.91689891   -3.0484713            1   -3.0487784 
1011  0.011024192  0.010069011 0.00012086137 0.00033255356  0.010443646  0.007111853 0.0022931122    2.5053176            0   -3.0535971  0.083850311   -3.0531353   0.16753451   -3.0506951   0.25120779   -3.0486126   0.33488059   -3.0474003   0.41855371   -3.0468196   0.50222843   -3.0465626   0.58795373   -3.0464852   0.66866597   -3.0465493   0.75142765    -3.046803   0.83418617   -3.0474313   0.91695454   -3.0484722            1   -3.0487784 
1021  0.010346901   0.00985078 0.00011654722 0.00032648186 0.0097317007 0.0071118655 0.0022931248    2.5054324            0   -3.0535971   0.08387965   -3.0531349   0.16759938   -3.0506935   0.25130809   -3.0486107   0.33501663    -3.047399   0.41872551   -3.0468188   0.50243611   -3.0465622   0.58815192   -3.0464852   0.66886157   -3.0465497   0.75157549   -3.0468038   0.83428646   -3.0474327   0.91700709    -3.048473            1   -3.0487784 
1031  0.010074931 0.0095788425 0.0001121295 0.00032021875 0.0090670576 0.0071118771 0.0022931366    2.5055516            0   -3.0535971  0.083910329   -3.0531345   0.16766684   -3.0506917   0.25141227   -3.0486087   0.33515783   -3.0473976   0.41890375   -3.0468179   0.50265148   -3.0465618   0.58834819   -3.0464852   0.66906445     -3.04655   0.75172886   -3.0468047   0.83439054   -3.0474341   0.91706174   -3.0484738            1   -3.0487784 
1035 0.0099402861 0.0094434423 0.00011015932 0.00031741107 0.0087786972 0.0071118819 0.0022931414    2.5056052            0   -3.0535971  0.083924097   -3.0531344   0.16769709   -3.0506909   0.25145903   -3.0486078   0.33522119    -3.047397   0.41898373   -3.0468176   0.50274814   -3.0465616   0.58843352   -3.0464852   0.66915551   -3.0465502   0.75179771   -3.0468051   0.83443728   -3.0474348   0.91708631   -3.0484742            1   -3.0487784 
