ITEM: TIMESTEP
0
ITEM: NUMBER OF ATOMS
420
ITEM: BOX BOUNDS pp ss pp
0.0000000000000000e+00 2.5687134504920127e+01
-2.2245711031688635e-03 2.2247935602791809e+01
-3.2108918131150160e-01 3.2108918131150160e-01
ITEM: ATOMS id type xs ys zs
1 2 0 9.998e-05 0.5
3 2 0.05 9.998e-05 0.5
5 2 0.1 9.998e-05 0.5
7 2 0.15 9.998e-05 0.5
9 2 0.2 9.998e-05 0.5
11 2 0.25 9.998e-05 0.5
13 2 0.3 9.998e-05 0.5
15 2 0.35 9.998e-05 0.5
17 2 0.4 9.998e-05 0.5
19 2 0.45 9.998e-05 0.5
21 2 0.5 9.998e-05 0.5
23 2 0.55 9.998e-05 0.5
25 2 0.6 9.998e-05 0.5
27 2 0.65 9.998e-05 0.5
29 2 0.7 9.998e-05 0.5
31 2 0.75 9.998e-05 0.5
33 2 0.8 9.998e-05 0.5
35 2 0.85 9.998e-05 0.5
37 2 0.9 9.998e-05 0.5
39 2 0.95 9.998e-05 0.5
2 2 0.025 0.05009 0.5
4 2 0.075 0.05009 0.5
6 2 0.125 0.05009 0.5
8 2 0.175 0.05009 0.5
10 2 0.225 0.05009 0.5
12 2 0.275 0.05009 0.5
14 2 0.325 0.05009 0.5
16 2 0.375 0.05009 0.5
18 2 0.425 0.05009 0.5
20 2 0.475 0.05009 0.5
22 2 0.525 0.05009 0.5
24 2 0.575 0.05009 0.5
26 2 0.625 0.05009 0.5
28 2 0.675 0.05009 0.5
30 2 0.725 0.05009 0.5
32 2 0.775 0.05009 0.5
34 2 0.825 0.05009 0.5
36 2 0.875 0.05009 0.5
38 2 0.925 0.05009 0.5
40 2 0.975 0.05009 0.5
41 2 0 0.10008 0.5
43 2 0.05 0.10008 0.5
45 2 0.1 0.10008 0.5
47 2 0.15 0.10008 0.5
49 2 0.2 0.10008 0.5
51 2 0.25 0.10008 0.5
53 2 0.3 0.10008 0.5
55 2 0.35 0.10008 0.5
57 2 0.4 0.10008 0.5
59 2 0.45 0.10008 0.5
61 2 0.5 0.10008 0.5
63 2 0.55 0.10008 0.5
65 2 0.6 0.10008 0.5
67 2 0.65 0.10008 0.5
69 2 0.7 0.10008 0.5
71 2 0.75 0.10008 0.5
73 2 0.8 0.10008 0.5
75 2 0.85 0.10008 0.5
77 2 0.9 0.10008 0.5
79 2 0.95 0.10008 0.5
42 1 0.025 0.15007 0.5
44 1 0.075 0.15007 0.5
46 1 0.125 0.15007 0.5
48 1 0.175 0.15007 0.5
50 1 0.225 0.15007 0.5
52 1 0.275 0.15007 0.5
54 1 0.325 0.15007 0.5
56 1 0.375 0.15007 0.5
58 1 0.425 0.15007 0.5
60 1 0.475 0.15007 0.5
62 1 0.525 0.15007 0.5
64 1 0.575 0.15007 0.5
66 1 0.625 0.15007 0.5
68 1 0.675 0.15007 0.5
70 1 0.725 0.15007 0.5
72 1 0.775 0.15007 0.5
74 1 0.825 0.15007 0.5
76 1 0.875 0.15007 0.5
78 1 0.925 0.15007 0.5
80 1 0.975 0.15007 0.5
81 1 0 0.20006 0.5
83 1 0.05 0.20006 0.5
85 1 0.1 0.20006 0.5
87 1 0.15 0.20006 0.5
89 1 0.2 0.20006 0.5
91 1 0.25 0.20006 0.5
93 1 0.3 0.20006 0.5
95 1 0.35 0.20006 0.5
97 1 0.4 0.20006 0.5
99 1 0.45 0.20006 0.5
101 1 0.5 0.20006 0.5
103 1 0.55 0.20006 0.5
105 1 0.6 0.20006 0.5
107 1 0.65 0.20006 0.5
109 1 0.7 0.20006 0.5
111 1 0.75 0.20006 0.5
113 1 0.8 0.20006 0.5
115 1 0.85 0.20006 0.5
117 1 0.9 0.20006 0.5
119 1 0.95 0.20006 0.5
82 1 0.025 0.25005 0.5
84 1 0.075 0.25005 0.5
86 1 0.125 0.25005 0.5
88 1 0.175 0.25005 0.5
90 1 0.225 0.25005 0.5
92 1 0.275 0.25005 0.5
94 1 0.325 0.25005 0.5
96 1 0.375 0.25005 0.5
98 1 0.425 0.25005 0.5
100 1 0.475 0.25005 0.5
102 1 0.525 0.25005 0.5
104 1 0.575 0.25005 0.5
106 1 0.625 0.25005 0.5
108 1 0.675 0.25005 0.5
110 1 0.725 0.25005 0.5
112 1 0.775 0.25005 0.5
114 1 0.825 0.25005 0.5
116 1 0.875 0.25005 0.5
118 1 0.925 0.25005 0.5
120 1 0.975 0.25005 0.5
121 1 0 0.30004 0.5
123 1 0.05 0.30004 0.5
125 1 0.1 0.30004 0.5
127 1 0.15 0.30004 0.5
129 1 0.2 0.30004 0.5
131 1 0.25 0.30004 0.5
133 1 0.3 0.30004 0.5
135 1 0.35 0.30004 0.5
137 1 0.4 0.30004 0.5
139 1 0.45 0.30004 0.5
141 1 0.5 0.30004 0.5
143 1 0.55 0.30004 0.5
145 1 0.6 0.30004 0.5
147 1 0.65 0.30004 0.5
149 1 0.7 0.30004 0.5
151 1 0.75 0.30004 0.5
153 1 0.8 0.30004 0.5
155 1 0.85 0.30004 0.5
157 1 0.9 0.30004 0.5
159 1 0.95 0.30004 0.5
122 1 0.025 0.35003 0.5
124 1 0.075 0.35003 0.5
126 1 0.125 0.35003 0.5
128 1 0.175 0.35003 0.5
130 1 0.225 0.35003 0.5
132 1 0.275 0.35003 0.5
134 1 0.325 0.35003 0.5
136 1 0.375 0.35003 0.5
138 1 0.425 0.35003 0.5
140 1 0.475 0.35003 0.5
142 1 0.525 0.35003 0.5
144 1 0.575 0.35003 0.5
146 1 0.625 0.35003 0.5
148 1 0.675 0.35003 0.5
150 1 0.725 0.35003 0.5
152 1 0.775 0.35003 0.5
154 1 0.825 0.35003 0.5
156 1 0.875 0.35003 0.5
158 1 0.925 0.35003 0.5
160 1 0.975 0.35003 0.5
161 1 0 0.40002 0.5
163 1 0.05 0.40002 0.5
165 1 0.1 0.40002 0.5
167 1 0.15 0.40002 0.5
169 1 0.2 0.40002 0.5
171 1 0.25 0.40002 0.5
173 1 0.3 0.40002 0.5
175 1 0.35 0.40002 0.5
177 1 0.4 0.40002 0.5
179 1 0.45 0.40002 0.5
181 1 0.5 0.40002 0.5
183 1 0.55 0.40002 0.5
185 1 0.6 0.40002 0.5
187 1 0.65 0.40002 0.5
189 1 0.7 0.40002 0.5
191 1 0.75 0.40002 0.5
193 1 0.8 0.40002 0.5
195 1 0.85 0.40002 0.5
197 1 0.9 0.40002 0.5
199 1 0.95 0.40002 0.5
162 1 0.025 0.45001 0.5
164 1 0.075 0.45001 0.5
166 1 0.125 0.45001 0.5
168 1 0.175 0.45001 0.5
170 1 0.225 0.45001 0.5
172 1 0.275 0.45001 0.5
174 1 0.325 0.45001 0.5
176 1 0.375 0.45001 0.5
178 1 0.425 0.45001 0.5
180 1 0.475 0.45001 0.5
182 1 0.525 0.45001 0.5
184 1 0.575 0.45001 0.5
186 1 0.625 0.45001 0.5
188 1 0.675 0.45001 0.5
190 1 0.725 0.45001 0.5
192 1 0.775 0.45001 0.5
194 1 0.825 0.45001 0.5
196 1 0.875 0.45001 0.5
198 1 0.925 0.45001 0.5
200 1 0.975 0.45001 0.5
201 1 0 0.5 0.5
203 1 0.05 0.5 0.5
205 1 0.1 0.5 0.5
207 1 0.15 0.5 0.5
209 1 0.2 0.5 0.5
211 1 0.25 0.5 0.5
213 1 0.3 0.5 0.5
215 1 0.35 0.5 0.5
217 1 0.4 0.5 0.5
219 1 0.45 0.5 0.5
221 1 0.5 0.5 0.5
223 1 0.55 0.5 0.5
225 1 0.6 0.5 0.5
227 1 0.65 0.5 0.5
229 1 0.7 0.5 0.5
231 1 0.75 0.5 0.5
233 1 0.8 0.5 0.5
235 1 0.85 0.5 0.5
237 1 0.9 0.5 0.5
239 1 0.95 0.5 0.5
202 1 0.025 0.54999 0.5
204 1 0.075 0.54999 0.5
206 1 0.125 0.54999 0.5
208 1 0.175 0.54999 0.5
210 1 0.225 0.54999 0.5
212 1 0.275 0.54999 0.5
214 1 0.325 0.54999 0.5
216 1 0.375 0.54999 0.5
218 1 0.425 0.54999 0.5
220 1 0.475 0.54999 0.5
222 1 0.525 0.54999 0.5
224 1 0.575 0.54999 0.5
226 1 0.625 0.54999 0.5
228 1 0.675 0.54999 0.5
230 1 0.725 0.54999 0.5
232 1 0.775 0.54999 0.5
234 1 0.825 0.54999 0.5
236 1 0.875 0.54999 0.5
238 1 0.925 0.54999 0.5
240 1 0.975 0.54999 0.5
241 1 0 0.59998 0.5
243 1 0.05 0.59998 0.5
245 1 0.1 0.59998 0.5
247 1 0.15 0.59998 0.5
249 1 0.2 0.59998 0.5
251 1 0.25 0.59998 0.5
253 1 0.3 0.59998 0.5
255 1 0.35 0.59998 0.5
257 1 0.4 0.59998 0.5
259 1 0.45 0.59998 0.5
261 1 0.5 0.59998 0.5
263 1 0.55 0.59998 0.5
265 1 0.6 0.59998 0.5
267 1 0.65 0.59998 0.5
269 1 0.7 0.59998 0.5
271 1 0.75 0.59998 0.5
273 1 0.8 0.59998 0.5
275 1 0.85 0.59998 0.5
277 1 0.9 0.59998 0.5
279 1 0.95 0.59998 0.5
242 1 0.025 0.64997 0.5
244 1 0.075 0.64997 0.5
246 1 0.125 0.64997 0.5
248 1 0.175 0.64997 0.5
250 1 0.225 0.64997 0.5
252 1 0.275 0.64997 0.5
254 1 0.325 0.64997 0.5
256 1 0.375 0.64997 0.5
258 1 0.425 0.64997 0.5
260 1 0.475 0.64997 0.5
262 1 0.525 0.64997 0.5
264 1 0.575 0.64997 0.5
266 1 0.625 0.64997 0.5
268 1 0.675 0.64997 0.5
270 1 0.725 0.64997 0.5
272 1 0.775 0.64997 0.5
274 1 0.825 0.64997 0.5
276 1 0.875 0.64997 0.5
278 1 0.925 0.64997 0.5
280 1 0.975 0.64997 0.5
281 1 0 0.69996 0.5
283 1 0.05 0.69996 0.5
285 1 0.1 0.69996 0.5
287 1 0.15 0.69996 0.5
289 1 0.2 0.69996 0.5
291 1 0.25 0.69996 0.5
293 1 0.3 0.69996 0.5
295 1 0.35 0.69996 0.5
297 1 0.4 0.69996 0.5
299 1 0.45 0.69996 0.5
301 1 0.5 0.69996 0.5
303 1 0.55 0.69996 0.5
305 1 0.6 0.69996 0.5
307 1 0.65 0.69996 0.5
309 1 0.7 0.69996 0.5
311 1 0.75 0.69996 0.5
313 1 0.8 0.69996 0.5
315 1 0.85 0.69996 0.5
317 1 0.9 0.69996 0.5
319 1 0.95 0.69996 0.5
282 1 0.025 0.74995 0.5
284 1 0.075 0.74995 0.5
286 1 0.125 0.74995 0.5
288 1 0.175 0.74995 0.5
290 1 0.225 0.74995 0.5
292 1 0.275 0.74995 0.5
294 1 0.325 0.74995 0.5
296 1 0.375 0.74995 0.5
298 1 0.425 0.74995 0.5
300 1 0.475 0.74995 0.5
302 1 0.525 0.74995 0.5
304 1 0.575 0.74995 0.5
306 1 0.625 0.74995 0.5
308 1 0.675 0.74995 0.5
310 1 0.725 0.74995 0.5
312 1 0.775 0.74995 0.5
314 1 0.825 0.74995 0.5
316 1 0.875 0.74995 0.5
318 1 0.925 0.74995 0.5
320 1 0.975 0.74995 0.5
321 1 0 0.79994 0.5
323 1 0.05 0.79994 0.5
325 1 0.1 0.79994 0.5
327 1 0.15 0.79994 0.5
329 1 0.2 0.79994 0.5
331 1 0.25 0.79994 0.5
333 1 0.3 0.79994 0.5
335 1 0.35 0.79994 0.5
337 1 0.4 0.79994 0.5
339 1 0.45 0.79994 0.5
341 1 0.5 0.79994 0.5
343 1 0.55 0.79994 0.5
345 1 0.6 0.79994 0.5
347 1 0.65 0.79994 0.5
349 1 0.7 0.79994 0.5
351 1 0.75 0.79994 0.5
353 1 0.8 0.79994 0.5
355 1 0.85 0.79994 0.5
357 1 0.9 0.79994 0.5
359 1 0.95 0.79994 0.5
322 1 0.025 0.84993 0.5
324 1 0.075 0.84993 0.5
326 1 0.125 0.84993 0.5
328 1 0.175 0.84993 0.5
330 1 0.225 0.84993 0.5
332 1 0.275 0.84993 0.5
334 1 0.325 0.84993 0.5
336 1 0.375 0.84993 0.5
338 1 0.425 0.84993 0.5
340 1 0.475 0.84993 0.5
342 1 0.525 0.84993 0.5
344 1 0.575 0.84993 0.5
346 1 0.625 0.84993 0.5
348 1 0.675 0.84993 0.5
350 1 0.725 0.84993 0.5
352 1 0.775 0.84993 0.5
354 1 0.825 0.84993 0.5
356 1 0.875 0.84993 0.5
358 1 0.925 0.84993 0.5
360 1 0.975 0.84993 0.5
361 3 0 0.89992 0.5
363 3 0.05 0.89992 0.5
365 3 0.1 0.89992 0.5
367 3 0.15 0.89992 0.5
369 3 0.2 0.89992 0.5
371 3 0.25 0.89992 0.5
373 3 0.3 0.89992 0.5
375 3 0.35 0.89992 0.5
377 3 0.4 0.89992 0.5
379 3 0.45 0.89992 0.5
381 3 0.5 0.89992 0.5
383 3 0.55 0.89992 0.5
385 3 0.6 0.89992 0.5
387 3 0.65 0.89992 0.5
389 3 0.7 0.89992 0.5
391 3 0.75 0.89992 0.5
393 3 0.8 0.89992 0.5
395 3 0.85 0.89992 0.5
397 3 0.9 0.89992 0.5
399 3 0.95 0.89992 0.5
362 3 0.025 0.94991 0.5
364 3 0.075 0.94991 0.5
366 3 0.125 0.94991 0.5
368 3 0.175 0.94991 0.5
370 3 0.225 0.94991 0.5
372 3 0.275 0.94991 0.5
374 3 0.325 0.94991 0.5
376 3 0.375 0.94991 0.5
378 3 0.425 0.94991 0.5
380 3 0.475 0.94991 0.5
382 3 0.525 0.94991 0.5
384 3 0.575 0.94991 0.5
386 3 0.625 0.94991 0.5
388 3 0.675 0.94991 0.5
390 3 0.725 0.94991 0.5
392 3 0.775 0.94991 0.5
394 3 0.825 0.94991 0.5
396 3 0.875 0.94991 0.5
398 3 0.925 0.94991 0.5
400 3 0.975 0.94991 0.5
401 3 0 0.9999 0.5
402 3 0.05 0.9999 0.5
403 3 0.1 0.9999 0.5
404 3 0.15 0.9999 0.5
405 3 0.2 0.9999 0.5
406 3 0.25 0.9999 0.5
407 3 0.3 0.9999 0.5
408 3 0.35 0.9999 0.5
409 3 0.4 0.9999 0.5
410 3 0.45 0.9999 0.5
411 3 0.5 0.9999 0.5
412 3 0.55 0.9999 0.5
413 3 0.6 0.9999 0.5
414 3 0.65 0.9999 0.5
415 3 0.7 0.9999 0.5
416 3 0.75 0.9999 0.5
417 3 0.8 0.9999 0.5
418 3 0.85 0.9999 0.5
419 3 0.9 0.9999 0.5
420 3 0.95 0.9999 0.5
ITEM: TIMESTEP
500
ITEM: NUMBER OF ATOMS
420
ITEM: BOX BOUNDS pp ss pp
0.0000000000000000e+00 2.5687134504920127e+01
-2.2245711031688635e-03 2.2404247548069733e+01
-3.2108918131150160e-01 3.2108918131150160e-01
ITEM: ATOMS id type xs ys zs
1 2 0 9.92825e-05 0.5
3 2 0.05 9.92825e-05 0.5
5 2 0.1 9.92825e-05 0.5
7 2 0.15 9.92825e-05 0.5
9 2 0.2 9.92825e-05 0.5
11 2 0.25 9.92825e-05 0.5
13 2 0.3 9.92825e-05 0.5
15 2 0.35 9.92825e-05 0.5
17 2 0.4 9.92825e-05 0.5
19 2 0.45 9.92825e-05 0.5
21 2 0.5 9.92825e-05 0.5
23 2 0.55 9.92825e-05 0.5
25 2 0.6 9.92825e-05 0.5
27 2 0.65 9.92825e-05 0.5
29 2 0.7 9.92825e-05 0.5
31 2 0.75 9.92825e-05 0.5
33 2 0.8 9.92825e-05 0.5
35 2 0.85 9.92825e-05 0.5
37 2 0.9 9.92825e-05 0.5
39 2 0.95 9.92825e-05 0.5
2 2 0.025 0.0497405 0.5
4 2 0.075 0.0497405 0.5
6 2 0.125 0.0497405 0.5
8 2 0.175 0.0497405 0.5
10 2 0.225 0.0497405 0.5
12 2 0.275 0.0497405 0.5
14 2 0.325 0.0497405 0.5
16 2 0.375 0.0497405 0.5
18 2 0.425 0.0497405 0.5
20 2 0.475 0.0497405 0.5
22 2 0.525 0.0497405 0.5
24 2 0.575 0.0497405 0.5
26 2 0.625 0.0497405 0.5
28 2 0.675 0.0497405 0.5
30 2 0.725 0.0497405 0.5
32 2 0.775 0.0497405 0.5
34 2 0.825 0.0497405 0.5
36 2 0.875 0.0497405 0.5
38 2 0.925 0.0497405 0.5
40 2 0.975 0.0497405 0.5
41 2 0 0.0993818 0.5
43 2 0.05 0.0993818 0.5
45 2 0.1 0.0993818 0.5
47 2 0.15 0.0993818 0.5
49 2 0.2 0.0993818 0.5
51 2 0.25 0.0993818 0.5
53 2 0.3 0.0993818 0.5
55 2 0.35 0.0993818 0.5
57 2 0.4 0.0993818 0.5
59 2 0.45 0.0993818 0.5
61 2 0.5 0.0993818 0.5
63 2 0.55 0.0993818 0.5
65 2 0.6 0.0993818 0.5
67 2 0.65 0.0993818 0.5
69 2 0.7 0.0993818 0.5
71 2 0.75 0.0993818 0.5
73 2 0.8 0.0993818 0.5
75 2 0.85 0.0993818 0.5
77 2 0.9 0.0993818 0.5
79 2 0.95 0.0993818 0.5
42 1 0.0438859 0.142463 0.5
44 1 0.0875598 0.144187 0.5
46 1 0.133957 0.141131 0.5
48 1 0.193829 0.192871 0.5
50 1 0.222449 0.157568 0.5
52 1 0.290344 0.151152 0.5
54 1 0.370559 0.139928 0.5
56 1 0.394062 0.192118 0.5
58 1 0.470076 0.155628 0.5
60 1 0.507046 0.186263 0.5
62 1 0.56046 0.151253 0.5
64 1 0.599855 0.147323 0.5
66 1 0.640388 0.15867 0.5
68 1 0.674013 0.134984 0.5
70 1 0.731342 0.144073 0.5
72 1 0.775677 0.13612 0.5
74 1 0.824453 0.139715 0.5
76 1 0.890026 0.151543 0.5
78 1 0.928287 0.147155 0.5
80 1 0.984755 0.15084 0.5
81 1 0.0159442 0.201722 0.5
83 1 0.0618556 0.185447 0.5
85 1 0.108907 0.205311 0.5
87 1 0.154034 0.185677 0.5
89 1 0.204496 0.234806 0.5
91 1 0.255173 0.191437 0.5
93 1 0.308364 0.193253 0.5
95 1 0.349479 0.178538 0.5
97 1 0.434903 0.213618 0.5
99 1 0.47453 0.221043 0.5
101 1 0.553081 0.196752 0.5
103 1 0.595307 0.200591 0.5
105 1 0.64678 0.222716 0.5
107 1 0.672808 0.187183 0.5
109 1 0.717306 0.200342 0.5
111 1 0.780606 0.206166 0.5
113 1 0.820077 0.203965 0.5
115 1 0.860024 0.177841 0.5
117 1 0.930884 0.234135 0.5
119 1 0.955092 0.183982 0.5
82 1 0.0496018 0.23326 0.5
84 1 0.0828283 0.258488 0.5
86 1 0.128042 0.27313 0.5
88 1 0.159898 0.234597 0.5
90 1 0.247707 0.244526 0.5
92 1 0.286549 0.231895 0.5
94 1 0.332475 0.246003 0.5
96 1 0.397897 0.241982 0.5
98 1 0.449759 0.269459 0.5
100 1 0.519701 0.228243 0.5
102 1 0.559045 0.243856 0.5
104 1 0.608592 0.242759 0.5
106 1 0.655387 0.271241 0.5
108 1 0.699228 0.252342 0.5
110 1 0.746623 0.254274 0.5
112 1 0.801226 0.259648 0.5
114 1 0.85665 0.23277 0.5
116 1 0.891852 0.256447 0.5
118 1 0.938424 0.284347 0.5
120 1 0.971628 0.249935 0.5
121 1 0.0138821 0.259428 0.5
123 1 0.0508617 0.291261 0.5
125 1 0.0909022 0.308083 0.5
127 1 0.169455 0.285294 0.5
129 1 0.217013 0.29732 0.5
131 1 0.27533 0.336993 0.5
133 1 0.293478 0.27971 0.5
135 1 0.366973 0.272225 0.5
137 1 0.405311 0.29013 0.5
139 1 0.449924 0.31282 0.5
141 1 0.488172 0.276724 0.5
143 1 0.528528 0.288783 0.5
145 1 0.575275 0.28646 0.5
147 1 0.688629 0.302372 0.5
149 1 0.728642 0.324336 0.5
151 1 0.76986 0.29458 0.5
153 1 0.811853 0.321814 0.5
155 1 0.851991 0.294944 0.5
157 1 0.894972 0.307045 0.5
159 1 0.981213 0.310325 0.5
122 1 0.0651977 0.351783 0.5
124 1 0.113603 0.38623 0.5
126 1 0.130219 0.322808 0.5
128 1 0.177763 0.328233 0.5
130 1 0.224809 0.342861 0.5
132 1 0.307656 0.388546 0.5
134 1 0.313463 0.331283 0.5
136 1 0.367748 0.320862 0.5
138 1 0.417672 0.341928 0.5
140 1 0.4942 0.335137 0.5
142 1 0.54306 0.340577 0.5
144 1 0.597779 0.346769 0.5
146 1 0.623412 0.30279 0.5
148 1 0.676986 0.34211 0.5
150 1 0.752649 0.387045 0.5
152 1 0.772979 0.342297 0.5
154 1 0.830354 0.379 0.5
156 1 0.864312 0.345755 0.5
158 1 0.937316 0.333922 0.5
160 1 0.0197897 0.33811 0.5
161 1 0.0156911 0.389366 0.5
163 1 0.0659471 0.400887 0.5
165 1 0.100948 0.432544 0.5
167 1 0.159544 0.370687 0.5
169 1 0.248001 0.382483 0.5
171 1 0.322189 0.442967 0.5
173 1 0.34734 0.372261 0.5
175 1 0.396512 0.381967 0.5
177 1 0.453575 0.389464 0.5
179 1 0.522649 0.386474 0.5
181 1 0.540816 0.43059 0.5
183 1 0.565064 0.383442 0.5
185 1 0.615326 0.417933 0.5
187 1 0.636205 0.371035 0.5
189 1 0.709727 0.378981 0.5
191 1 0.753862 0.473433 0.5
193 1 0.792084 0.398747 0.5
195 1 0.878679 0.394733 0.5
197 1 0.931649 0.391473 0.5
199 1 0.977309 0.359234 0.5
162 1 0.0442276 0.440535 0.5
164 1 0.0964842 0.494611 0.5
166 1 0.152539 0.483295 0.5
168 1 0.14016 0.422006 0.5
170 1 0.266936 0.424121 0.5
172 1 0.296493 0.485098 0.5
174 1 0.365108 0.41804 0.5
176 1 0.40979 0.42645 0.5
178 1 0.456745 0.446455 0.5
180 1 0.490812 0.412024 0.5
182 1 0.529931 0.47975 0.5
184 1 0.57604 0.448856 0.5
186 1 0.680711 0.473209 0.5
188 1 0.667614 0.409807 0.5
190 1 0.706807 0.427627 0.5
192 1 0.826533 0.428135 0.5
194 1 0.869183 0.44352 0.5
196 1 0.906639 0.446941 0.5
198 1 0.974949 0.414031 0.5
200 1 0.00786894 0.463083 0.5
201 1 0.0145493 0.525623 0.5
203 1 0.054959 0.513247 0.5
205 1 0.13998 0.528545 0.5
207 1 0.194974 0.500765 0.5
209 1 0.187265 0.436101 0.5
211 1 0.23248 0.475972 0.5
213 1 0.367038 0.467775 0.5
215 1 0.402735 0.532394 0.5
217 1 0.415605 0.488809 0.5
219 1 0.470879 0.49725 0.5
221 1 0.573119 0.508246 0.5
223 1 0.618251 0.509229 0.5
225 1 0.640401 0.46272 0.5
227 1 0.713502 0.495003 0.5
229 1 0.746867 0.517708 0.5
231 1 0.799607 0.476558 0.5
233 1 0.838106 0.476653 0.5
235 1 0.87563 0.498573 0.5
237 1 0.954763 0.457114 0.5
239 1 0.980268 0.502279 0.5
202 1 0.987715 0.57136 0.5
204 1 0.0711622 0.559009 0.5
206 1 0.156106 0.574773 0.5
208 1 0.193328 0.550551 0.5
210 1 0.23862 0.536117 0.5
212 1 0.296943 0.534093 0.5
214 1 0.355737 0.517108 0.5
216 1 0.402946 0.580865 0.5
218 1 0.444652 0.54325 0.5
220 1 0.516876 0.529255 0.5
222 1 0.565631 0.573496 0.5
224 1 0.626279 0.558522 0.5
226 1 0.673121 0.516396 0.5
228 1 0.715486 0.555319 0.5
230 1 0.753563 0.575548 0.5
232 1 0.790297 0.529063 0.5
234 1 0.835248 0.550748 0.5
236 1 0.894668 0.542421 0.5
238 1 0.931964 0.507079 0.5
240 1 0.95374 0.551764 0.5
241 1 0.00576473 0.615127 0.5
243 1 0.0340345 0.577693 0.5
245 1 0.106968 0.583693 0.5
247 1 0.12915 0.641055 0.5
249 1 0.239807 0.595869 0.5
251 1 0.290483 0.584111 0.5
253 1 0.33313 0.553472 0.5
255 1 0.361183 0.586739 0.5
257 1 0.459111 0.645875 0.5
259 1 0.443412 0.597417 0.5
261 1 0.513084 0.578012 0.5
263 1 0.593588 0.624359 0.5
265 1 0.641769 0.605726 0.5
267 1 0.670909 0.567534 0.5
269 1 0.718148 0.601057 0.5
271 1 0.795844 0.581043 0.5
273 1 0.863128 0.58593 0.5
275 1 0.890733 0.617403 0.5
277 1 0.926956 0.591987 0.5
279 1 0.963265 0.608695 0.5
242 1 0.0481659 0.630659 0.5
244 1 0.0886568 0.639127 0.5
246 1 0.152985 0.680098 0.5
248 1 0.191201 0.597307 0.5
250 1 0.244345 0.650471 0.5
252 1 0.300791 0.630899 0.5
254 1 0.335285 0.651672 0.5
256 1 0.39824 0.637165 0.5
258 1 0.49203 0.681072 0.5
260 1 0.49068 0.617652 0.5
262 1 0.531911 0.657587 0.5
264 1 0.571742 0.665591 0.5
266 1 0.634107 0.658796 0.5
268 1 0.668511 0.633598 0.5
270 1 0.763357 0.621232 0.5
272 1 0.824478 0.618305 0.5
274 1 0.849445 0.6537 0.5
276 1 0.925561 0.64595 0.5
278 1 0.948853 0.688223 0.5
280 1 0.987954 0.66209 0.5
281 1 0.0170689 0.69494 0.5
283 1 0.066366 0.682817 0.5
285 1 0.111091 0.692387 0.5
287 1 0.138566 0.734518 0.5
289 1 0.200056 0.643022 0.5
291 1 0.281532 0.677309 0.5
293 1 0.329182 0.702494 0.5
295 1 0.366795 0.680869 0.5
297 1 0.421914 0.685675 0.5
299 1 0.505377 0.729134 0.5
301 1 0.544729 0.749391 0.5
303 1 0.566184 0.710362 0.5
305 1 0.603275 0.695924 0.5
307 1 0.670304 0.691081 0.5
309 1 0.709982 0.650186 0.5
311 1 0.762358 0.670537 0.5
313 1 0.803344 0.667822 0.5
315 1 0.883946 0.682518 0.5
317 1 0.921898 0.748513 0.5
319 1 0.98336 0.723707 0.5
282 1 0.0479717 0.741434 0.5
284 1 0.0918108 0.732443 0.5
286 1 0.143618 0.780014 0.5
288 1 0.180849 0.730804 0.5
290 1 0.234303 0.695754 0.5
292 1 0.279866 0.734016 0.5
294 1 0.333716 0.757922 0.5
296 1 0.386294 0.725325 0.5
298 1 0.456425 0.711296 0.5
300 1 0.469205 0.753062 0.5
302 1 0.592896 0.747583 0.5
304 1 0.63404 0.768676 0.5
306 1 0.679729 0.740402 0.5
308 1 0.71634 0.712219 0.5
310 1 0.746522 0.739188 0.5
312 1 0.78609 0.710449 0.5
314 1 0.846399 0.706544 0.5
316 1 0.855736 0.800871 0.5
318 1 0.958515 0.773634 0.5
320 1 0.00134614 0.765386 0.5
321 1 0.0297921 0.80441 0.5
323 1 0.0798469 0.778639 0.5
325 1 0.116475 0.820244 0.5
327 1 0.182748 0.809494 0.5
329 1 0.239872 0.756305 0.5
331 1 0.277048 0.789753 0.5
333 1 0.309954 0.816474 0.5
335 1 0.374801 0.778976 0.5
337 1 0.426839 0.760696 0.5
339 1 0.453208 0.80207 0.5
341 1 0.520463 0.792101 0.5
343 1 0.568021 0.789873 0.5
345 1 0.610177 0.817422 0.5
347 1 0.665167 0.810825 0.5
349 1 0.705556 0.777988 0.5
351 1 0.782463 0.765781 0.5
353 1 0.81121 0.804204 0.5
355 1 0.898333 0.801705 0.5
357 1 0.882303 0.747119 0.5
359 1 0.965656 0.816857 0.5
322 1 0.0233277 0.859655 0.5
324 1 0.0872085 0.856447 0.5
326 1 0.153659 0.843053 0.5
328 1 0.196507 0.856793 0.5
330 1 0.227436 0.829857 0.5
332 1 0.281163 0.856357 0.5
334 1 0.352848 0.849282 0.5
336 1 0.398287 0.845895 0.5
338 1 0.439126 0.846728 0.5
340 1 0.480479 0.847903 0.5
342 1 0.546534 0.827124 0.5
344 1 0.581278 0.847096 0.5
346 1 0.641878 0.848854 0.5
348 1 0.704532 0.827542 0.5
350 1 0.752879 0.802667 0.5
352 1 0.783982 0.849229 0.5
354 1 0.826961 0.86032 0.5
356 1 0.867511 0.854921 0.5
358 1 0.916736 0.843362 0.5
360 1 0.975761 0.86361 0.5
361 3 0 0.900753 0.5
363 3 0.05 0.900753 0.5
365 3 0.1 0.900753 0.5
367 3 0.15 0.900753 0.5
369 3 0.2 0.900753 0.5
371 3 0.25 0.900753 0.5
373 3 0.3 0.900753 0.5
375 3 0.35 0.900753 0.5
377 3 0.4 0.900753 0.5
379 3 0.45 0.900753 0.5
381 3 0.5 0.900753 0.5
383 3 0.55 0.900753 0.5
385 3 0.6 0.900753 0.5
387 3 0.65 0.900753 0.5
389 3 0.7 0.900753 0.5
391 3 0.75 0.900753 0.5
393 3 0.8 0.900753 0.5
395 3 0.85 0.900753 0.5
397 3 0.9 0.900753 0.5
399 3 0.95 0.900753 0.5
362 3 0.025 0.950395 0.5
364 3 0.075 0.950395 0.5
366 3 0.125 0.950395 0.5
368 3 0.175 0.950395 0.5
370 3 0.225 0.950395 0.5
372 3 0.275 0.950395 0.5
374 3 0.325 0.950395 0.5
376 3 0.375 0.950395 0.5
378 3 0.425 0.950395 0.5
380 3 0.475 0.950395 0.5
382 3 0.525 0.950395 0.5
384 3 0.575 0.950395 0.5
386 3 0.625 0.950395 0.5
388 3 0.675 0.950395 0.5
390 3 0.725 0.950395 0.5
392 3 0.775 0.950395 0.5
394 3 0.825 0.950395 0.5
396 3 0.875 0.950395 0.5
398 3 0.925 0.950395 0.5
400 3 0.975 0.950395 0.5
401 3 0 1.00004 0.5
402 3 0.05 1.00004 0.5
403 3 0.1 1.00004 0.5
404 3 0.15 1.00004 0.5
405 3 0.2 1.00004 0.5
406 3 0.25 1.00004 0.5
407 3 0.3 1.00004 0.5
408 3 0.35 1.00004 0.5
409 3 0.4 1.00004 0.5
410 3 0.45 1.00004 0.5
411 3 0.5 1.00004 0.5
412 3 0.55 1.00004 0.5
413 3 0.6 1.00004 0.5
414 3 0.65 1.00004 0.5
415 3 0.7 1.00004 0.5
416 3 0.75 1.00004 0.5
417 3 0.8 1.00004 0.5
418 3 0.85 1.00004 0.5
419 3 0.9 1.00004 0.5
420 3 0.95 1.00004 0.5
ITEM: TIMESTEP
1000
ITEM: NUMBER OF ATOMS
420
ITEM: BOX BOUNDS pp ss pp
0.0000000000000000e+00 2.5687134504920127e+01
-2.2245711031688635e-03 2.2759044752865009e+01
-3.2108918131150160e-01 3.2108918131150160e-01
ITEM: ATOMS id type xs ys zs
1 2 0 9.77349e-05 0.5
3 2 0.05 9.77349e-05 0.5
5 2 0.1 9.77349e-05 0.5
7 2 0.15 9.77349e-05 0.5
9 2 0.2 9.77349e-05 0.5
11 2 0.25 9.77349e-05 0.5
13 2 0.3 9.77349e-05 0.5
15 2 0.35 9.77349e-05 0.5
17 2 0.4 9.77349e-05 0.5
19 2 0.45 9.77349e-05 0.5
21 2 0.5 9.77349e-05 0.5
23 2 0.55 9.77349e-05 0.5
25 2 0.6 9.77349e-05 0.5
27 2 0.65 9.77349e-05 0.5
29 2 0.7 9.77349e-05 0.5
31 2 0.75 9.77349e-05 0.5
33 2 0.8 9.77349e-05 0.5
35 2 0.85 9.77349e-05 0.5
37 2 0.9 9.77349e-05 0.5
39 2 0.95 9.77349e-05 0.5
2 2 0.025 0.0489652 0.5
4 2 0.075 0.0489652 0.5
6 2 0.125 0.0489652 0.5
8 2 0.175 0.0489652 0.5
10 2 0.225 0.0489652 0.5
12 2 0.275 0.0489652 0.5
14 2 0.325 0.0489652 0.5
16 2 0.375 0.0489652 0.5
18 2 0.425 0.0489652 0.5
20 2 0.475 0.0489652 0.5
22 2 0.525 0.0489652 0.5
24 2 0.575 0.0489652 0.5
26 2 0.625 0.0489652 0.5
28 2 0.675 0.0489652 0.5
30 2 0.725 0.0489652 0.5
32 2 0.775 0.0489652 0.5
34 2 0.825 0.0489652 0.5
36 2 0.875 0.0489652 0.5
38 2 0.925 0.0489652 0.5
40 2 0.975 0.0489652 0.5
41 2 0 0.0978327 0.5
43 2 0.05 0.0978327 0.5
45 2 0.1 0.0978327 0.5
47 2 0.15 0.0978327 0.5
49 2 0.2 0.0978327 0.5
51 2 0.25 0.0978327 0.5
53 2 0.3 0.0978327 0.5
55 2 0.35 0.0978327 0.5
57 2 0.4 0.0978327 0.5
59 2 0.45 0.0978327 0.5
61 2 0.5 0.0978327 0.5
63 2 0.55 0.0978327 0.5
65 2 0.6 0.0978327 0.5
67 2 0.65 0.0978327 0.5
69 2 0.7 0.0978327 0.5
71 2 0.75 0.0978327 0.5
73 2 0.8 0.0978327 0.5
75 2 0.85 0.0978327 0.5
77 2 0.9 0.0978327 0.5
79 2 0.95 0.0978327 0.5
42 1 0.0641612 0.21096 0.5
44 1 0.0859188 0.138912 0.5
46 1 0.134357 0.139125 0.5
48 1 0.222984 0.169782 0.5
50 1 0.259915 0.150632 0.5
52 1 0.318904 0.136223 0.5
54 1 0.472674 0.151995 0.5
56 1 0.427006 0.163422 0.5
58 1 0.539868 0.144979 0.5
60 1 0.506503 0.189055 0.5
62 1 0.582378 0.142911 0.5
64 1 0.628768 0.135986 0.5
66 1 0.667746 0.151375 0.5
68 1 0.712942 0.145019 0.5
70 1 0.760199 0.14701 0.5
72 1 0.80756 0.155848 0.5
74 1 0.859373 0.144274 0.5
76 1 0.946774 0.172218 0.5
78 1 0.989018 0.148417 0.5
80 1 0.0389477 0.15204 0.5
81 1 0.0174951 0.186483 0.5
83 1 0.111971 0.183657 0.5
85 1 0.141584 0.218276 0.5
87 1 0.175087 0.183304 0.5
89 1 0.240139 0.258674 0.5
91 1 0.249307 0.21193 0.5
93 1 0.350555 0.163931 0.5
95 1 0.388722 0.15488 0.5
97 1 0.461642 0.196674 0.5
99 1 0.492688 0.238767 0.5
101 1 0.601169 0.202219 0.5
103 1 0.647709 0.200879 0.5
105 1 0.694842 0.200729 0.5
107 1 0.751019 0.204244 0.5
109 1 0.766492 0.257973 0.5
111 1 0.791321 0.205268 0.5
113 1 0.837364 0.192505 0.5
115 1 0.901985 0.170317 0.5
117 1 0.978546 0.26166 0.5
119 1 0.977356 0.208494 0.5
82 1 0.102158 0.232935 0.5
84 1 0.131441 0.276276 0.5
86 1 0.17077 0.263493 0.5
88 1 0.200093 0.23181 0.5
90 1 0.295838 0.238768 0.5
92 1 0.334621 0.211248 0.5
94 1 0.376268 0.208657 0.5
96 1 0.420862 0.211326 0.5
98 1 0.485428 0.286995 0.5
100 1 0.548943 0.225692 0.5
102 1 0.624973 0.248618 0.5
104 1 0.680584 0.247839 0.5
106 1 0.7358 0.290231 0.5
108 1 0.722839 0.239186 0.5
110 1 0.812752 0.244566 0.5
112 1 0.856923 0.246982 0.5
114 1 0.898052 0.249712 0.5
116 1 0.933293 0.22254 0.5
118 1 0.00776778 0.299984 0.5
120 1 0.0323348 0.237389 0.5
121 1 0.0638453 0.267549 0.5
123 1 0.0999121 0.316223 0.5
125 1 0.155101 0.347285 0.5
127 1 0.228301 0.309355 0.5
129 1 0.270065 0.300076 0.5
131 1 0.304188 0.345643 0.5
133 1 0.307256 0.289467 0.5
135 1 0.355396 0.256655 0.5
137 1 0.42595 0.263654 0.5
139 1 0.499256 0.333389 0.5
141 1 0.535407 0.281699 0.5
143 1 0.58057 0.277023 0.5
145 1 0.649318 0.283257 0.5
147 1 0.785935 0.302914 0.5
149 1 0.829153 0.336195 0.5
151 1 0.8479 0.294472 0.5
153 1 0.866097 0.36891 0.5
155 1 0.887727 0.294908 0.5
157 1 0.935735 0.280732 0.5
159 1 0.0469119 0.318913 0.5
122 1 0.123004 0.375156 0.5
124 1 0.196483 0.349382 0.5
126 1 0.177117 0.310252 0.5
128 1 0.236659 0.362391 0.5
130 1 0.283722 0.385333 0.5
132 1 0.377781 0.380766 0.5
134 1 0.366028 0.301144 0.5
136 1 0.407701 0.308144 0.5
138 1 0.446644 0.315396 0.5
140 1 0.539879 0.344909 0.5
142 1 0.589098 0.341568 0.5
144 1 0.65156 0.32854 0.5
146 1 0.694095 0.297043 0.5
148 1 0.738501 0.34631 0.5
150 1 0.765564 0.399667 0.5
152 1 0.815032 0.383059 0.5
154 1 0.920995 0.382705 0.5
156 1 0.916247 0.333309 0.5
158 1 0.959943 0.320792 0.5
160 1 0.0739173 0.353184 0.5
161 1 0.0825123 0.400503 0.5
163 1 0.179164 0.395396 0.5
165 1 0.15713 0.446322 0.5
167 1 0.237587 0.408301 0.5
169 1 0.336007 0.382997 0.5
171 1 0.406006 0.438042 0.5
173 1 0.415926 0.360364 0.5
175 1 0.457911 0.382743 0.5
177 1 0.508012 0.379584 0.5
179 1 0.565971 0.386533 0.5
181 1 0.590413 0.42593 0.5
183 1 0.63419 0.381155 0.5
185 1 0.630775 0.444863 0.5
187 1 0.670683 0.409005 0.5
189 1 0.777194 0.351446 0.5
191 1 0.812611 0.438303 0.5
193 1 0.853274 0.419085 0.5
195 1 0.969975 0.368078 0.5
197 1 0.992674 0.407939 0.5
199 1 0.0125208 0.354465 0.5
162 1 0.121561 0.421607 0.5
164 1 0.173781 0.524265 0.5
166 1 0.196402 0.485029 0.5
168 1 0.199513 0.438181 0.5
170 1 0.368234 0.422267 0.5
172 1 0.345782 0.47108 0.5
174 1 0.452764 0.429491 0.5
176 1 0.479607 0.469235 0.5
178 1 0.499625 0.428031 0.5
180 1 0.537064 0.444131 0.5
182 1 0.563712 0.477296 0.5
184 1 0.629221 0.494457 0.5
186 1 0.725411 0.432595 0.5
188 1 0.705575 0.376167 0.5
190 1 0.774466 0.453039 0.5
192 1 0.899758 0.423949 0.5
194 1 0.947837 0.435512 0.5
196 1 0.988828 0.460714 0.5
198 1 0.0328015 0.400482 0.5
200 1 0.101378 0.461648 0.5
201 1 0.101171 0.52495 0.5
203 1 0.146097 0.49293 0.5
205 1 0.215361 0.543804 0.5
207 1 0.2456 0.503899 0.5
209 1 0.247493 0.450421 0.5
211 1 0.288174 0.432013 0.5
213 1 0.436434 0.492672 0.5
215 1 0.419123 0.539022 0.5
217 1 0.482454 0.523655 0.5
219 1 0.528706 0.515608 0.5
221 1 0.671685 0.505608 0.5
223 1 0.717937 0.493222 0.5
225 1 0.686603 0.464234 0.5
227 1 0.759599 0.522183 0.5
229 1 0.798579 0.513863 0.5
231 1 0.868794 0.465134 0.5
233 1 0.907438 0.481429 0.5
235 1 0.949177 0.506788 0.5
237 1 0.0570641 0.446957 0.5
239 1 0.0605954 0.492824 0.5
202 1 0.0431046 0.552392 0.5
204 1 0.12835 0.56591 0.5
206 1 0.229562 0.585669 0.5
208 1 0.264102 0.550953 0.5
210 1 0.303839 0.484274 0.5
212 1 0.341198 0.51865 0.5
214 1 0.390499 0.504576 0.5
216 1 0.460079 0.565433 0.5
218 1 0.504299 0.568849 0.5
220 1 0.58439 0.520379 0.5
222 1 0.625749 0.542077 0.5
224 1 0.664823 0.57438 0.5
226 1 0.712108 0.546794 0.5
228 1 0.758236 0.576361 0.5
230 1 0.806467 0.573393 0.5
232 1 0.829945 0.48216 0.5
234 1 0.866261 0.508772 0.5
236 1 0.924321 0.543222 0.5
238 1 0.0193039 0.494531 0.5
240 1 0.988282 0.542883 0.5
241 1 0.0789269 0.619204 0.5
243 1 0.087548 0.576654 0.5
245 1 0.172929 0.570752 0.5
247 1 0.218541 0.633997 0.5
249 1 0.313427 0.552238 0.5
251 1 0.348142 0.600727 0.5
253 1 0.373491 0.564953 0.5
255 1 0.406301 0.603033 0.5
257 1 0.520431 0.664426 0.5
259 1 0.494808 0.620227 0.5
261 1 0.562898 0.564117 0.5
263 1 0.616173 0.590785 0.5
265 1 0.671883 0.625184 0.5
267 1 0.710767 0.617647 0.5
269 1 0.755609 0.634517 0.5
271 1 0.839663 0.551555 0.5
273 1 0.936801 0.586757 0.5
275 1 0.949687 0.630778 0.5
277 1 0.986822 0.591423 0.5
279 1 0.0293654 0.605767 0.5
242 1 0.123424 0.663113 0.5
244 1 0.156923 0.616376 0.5
246 1 0.220853 0.692352 0.5
248 1 0.277312 0.603291 0.5
250 1 0.306197 0.632658 0.5
252 1 0.378435 0.633894 0.5
254 1 0.37773 0.684931 0.5
256 1 0.45188 0.611014 0.5
258 1 0.573131 0.662989 0.5
260 1 0.534393 0.611642 0.5
262 1 0.573873 0.609927 0.5
264 1 0.60575 0.639284 0.5
266 1 0.661107 0.667832 0.5
268 1 0.720392 0.667639 0.5
270 1 0.838395 0.612677 0.5
272 1 0.87912 0.563017 0.5
274 1 0.886522 0.61003 0.5
276 1 0.996981 0.639603 0.5
278 1 0.965509 0.671826 0.5
280 1 0.0232041 0.674468 0.5
281 1 0.0841184 0.68347 0.5
283 1 0.136114 0.709429 0.5
285 1 0.179053 0.665241 0.5
287 1 0.207415 0.757027 0.5
289 1 0.258881 0.645954 0.5
291 1 0.335354 0.679502 0.5
293 1 0.407213 0.72064 0.5
295 1 0.435384 0.655425 0.5
297 1 0.475818 0.668962 0.5
299 1 0.569202 0.726036 0.5
301 1 0.595551 0.759791 0.5
303 1 0.608873 0.695558 0.5
305 1 0.684608 0.710762 0.5
307 1 0.731349 0.719764 0.5
309 1 0.773915 0.673128 0.5
311 1 0.800422 0.635195 0.5
313 1 0.84233 0.658582 0.5
315 1 0.905077 0.672928 0.5
317 1 0.936571 0.716539 0.5
319 1 0.0437114 0.71472 0.5
282 1 0.119864 0.778713 0.5
284 1 0.171719 0.735253 0.5
286 1 0.219974 0.835722 0.5
288 1 0.253006 0.747544 0.5
290 1 0.292237 0.676476 0.5
292 1 0.325654 0.726389 0.5
294 1 0.394296 0.769005 0.5
296 1 0.445028 0.703236 0.5
298 1 0.526101 0.713569 0.5
300 1 0.539202 0.761934 0.5
302 1 0.637659 0.73177 0.5
304 1 0.710539 0.766399 0.5
306 1 0.760403 0.761742 0.5