ITEM: TIMESTEP
6000
ITEM: NUMBER OF ENTRIES
432
ITEM: BOX BOUNDS pp pp pp
0 18
0 18
0 18
ITEM: ENTRIES index c_1[1] c_1[2] c_1[3] c_1[4] 
1 14 14.4489 6.03265 1.85682 
2 14 15.1932 7.86259 2.16883 
3 14 16.4128 7.63399 0.600259 
4 14 15.6685 5.80406 0.288249 
5 14 13.0494 6.80666 0.655885 
6 14 13.7937 8.63659 0.967894 
7 14 15.0133 8.408 -0.600675 
8 14 14.269 6.57806 -0.912684 
9 1 10.4705 3.18882 1.47845 
10 1 9.13187 3.26955 -0.00531521 
11 1 7.72341 3.83712 1.29626 
12 1 9.06204 3.75639 2.78002 
13 1 10.9441 5.1049 1.15541 
14 1 9.60547 5.18563 -0.32835 
15 1 8.19701 5.7532 0.973227 
16 1 9.53564 5.67247 2.45699 
17 48 12.911 12.4478 1.58958 
18 48 14.7503 12.1369 2.31082 
19 48 14.0147 10.8112 3.61528 
20 48 12.1754 11.1222 2.89404 
21 48 13.1862 10.9829 0.25609 
22 48 15.0256 10.6719 0.977333 
23 48 14.29 9.34631 2.28179 
24 48 12.4506 9.65722 1.56055 
25 19 -0.688938 15.3728 14.5799 
26 19 -0.510491 16.3471 16.3174 
27 19 -0.504729 14.6024 17.2951 
28 19 -0.683176 13.6281 15.5576 
29 19 1.30308 15.2905 14.4214 
30 19 1.48152 16.2648 16.1589 
31 19 1.48729 14.5201 17.1367 
32 19 1.30884 13.5458 15.3992 
33 39 10.3024 3.89643 3.45239 
34 39 9.0818 5.4704 3.63309 
35 39 7.51135 4.29846 3.23278 
36 39 8.73199 2.72448 3.05208 
37 39 10.0933 3.51023 5.40357 
38 39 8.87264 5.0842 5.58427 
39 39 7.30219 3.91226 5.18396 
40 39 8.52283 2.33828 5.00326 
41 52 9.7163 5.79969 2.66079 
42 52 11.2866 6.97222 3.06004 
43 52 10.6196 7.22948 4.9279 
44 52 9.0493 6.05695 4.52866 
45 52 10.76 4.2 3.25382 
46 52 12.3303 5.37253 3.65306 
47 52 11.6633 5.62979 5.52093 
48 52 10.093 4.45726 5.12168 
49 49 5.24171 12.6513 4.38458 
50 49 3.89006 12.2472 5.80223 
51 49 2.53248 13.338 4.8188 
52 49 3.88414 13.7421 3.40116 
53 49 4.66724 11.0244 3.37306 
54 49 3.31559 10.6203 4.7907 
55 49 1.95801 11.7111 3.80728 
56 49 3.30966 12.1152 2.38964 
57 12 11.9306 13.234 1.7426 
58 12 13.5684 14.254 2.26922 
59 12 12.5451 15.1354 3.74436 
60 12 10.9073 14.1154 3.21774 
61 12 12.4509 11.7566 2.98625 
62 12 14.0886 12.7766 3.51287 
63 12 13.0653 13.658 4.988 
64 12 11.4276 12.638 4.46138 
65 7 14.1218 13.2281 4.38857 
66 7 13.6804 14.6475 3.05056 
67 7 15.3082 15.6715 3.59977 
68 7 15.7497 14.252 4.93778 
69 7 15.1966 12.2603 3.00724 
70 7 14.7552 13.6797 1.66922 
71 7 16.383 14.7037 2.21843 
72 7 16.8245 13.2842 3.55644 
73 23 1.05015 13.4119 0.244382 
74 23 2.28649 13.15 -1.30575 
75 23 2.62858 15.1196 -1.36566 
76 23 1.39225 15.3815 0.184471 
77 23 2.58458 13.1837 1.50673 
78 23 3.82091 12.9219 -0.0434024 
79 23 4.16301 14.8915 -0.103314 
80 23 2.92667 15.1534 1.44682 
81 40 17.3116 1.17895 5.49984 
82 40 16.5658 1.86789 7.22298 
83 40 14.7545 2.00165 6.38557 
84 40 15.5003 1.31271 4.66244 
85 40 16.9079 -0.693875 6.07391 
86 40 16.1621 -0.00493117 7.79705 
87 40 14.3508 0.128832 6.95964 
88 40 15.0966 -0.560112 5.2365 
89 45 7.23124 9.88396 3.41133 
90 45 7.41023 10.6113 5.26578 
91 45 8.12592 12.3254 4.5244 
92 45 7.94692 11.5981 2.66996 
93 45 5.37227 10.6139 3.30448 
94 45 5.55127 11.3412 5.15892 
95 45 6.26695 13.0553 4.41754 
96 45 6.08795 12.328 2.5631 
97 4 14.3171 9.83413 7.49059 
98 4 14.7513 9.50096 5.56692 
99 4 14.6766 7.52891 5.89162 
100 4 14.2425 7.86208 7.81529 
101 4 12.3662 9.83544 7.05006 
102 4 12.8004 9.50227 5.12639 
103 4 12.7257 7.53021 5.4511 
104 4 12.2916 7.86339 7.37477 
105 13 12.4579 11.6863 3.71363 
106 13 14.4272 11.7603 3.37229 
107 13 14.6334 13.0918 4.85029 
108 13 12.6641 13.0178 5.19163 
109 13 12.7398 10.1958 5.01709 
110 13 14.7091 10.2698 4.67576 
111 13 14.9153 11.6013 6.15375 
112 13 12.946 11.5274 6.49509 
113 11 -1.06431 12.485 5.86198 
114 11 -1.20593 12.8368 3.89826 
115 11 0.492333 13.8911 3.96465 
116 11 0.633946 13.5393 5.92837 
117 11 -0.0174764 10.8223 5.48862 
118 11 -0.159089 11.1741 3.5249 
119 11 1.53917 12.2284 3.5913 
120 11 1.68078 11.8766 5.55502 
121 31 4.7506 13.1632 4.79216 
122 31 6.7442 13.2852 4.89547 
123 31 6.71365 14.8448 3.64378 
124 31 4.72005 14.7228 3.54047 
125 31 4.5937 14.4093 6.34863 
126 31 6.5873 14.5313 6.45194 
127 31 6.55675 16.0909 5.20025 
128 31 4.56314 15.9689 5.09693 
129 30 7.10306 15.0295 1.83583 
130 30 7.88065 13.6203 3.02306 
131 30 8.30349 12.5026 1.41938 
132 30 7.5259 13.9117 0.232145 
133 30 8.89654 15.904 1.69916 
134 30 9.67413 14.4948 2.8864 
135 30 10.097 13.3771 1.28272 
136 30 9.31937 14.7862 0.0954842 
137 2 4.23543 16.2341 8.03191 
138 2 6.09839 16.8877 7.71229 
139 2 6.25697 15.6655 6.13715 
140 2 4.39401 15.0119 6.45677 
141 2 3.52534 17.676 6.84162 
142 2 5.38829 18.3296 6.522 
143 2 5.54687 17.1074 4.94687 
144 2 3.68391 16.4538 5.26649 
145 16 9.50117 17.2721 6.19678 
146 16 9.15986 18.7421 7.5093 
147 16 7.60906 19.3636 6.40991 
148 16 7.95036 17.8937 5.09739 
149 16 8.28522 16.0667 7.23052 
150 16 7.94392 17.5367 8.54304 
151 16 6.39311 18.1583 7.44365 
152 16 6.73442 16.6883 6.13113 
153 54 16.9393 17.198 6.87352 
154 54 18.748 16.3736 6.65214 
155 54 18.3588 15.1155 8.15735 
156 54 16.5501 15.9398 8.37873 
157 54 16.1796 15.8798 5.57532 
158 54 17.9883 15.0554 5.35393 
159 54 17.5992 13.7973 6.85914 
160 54 15.7905 14.6217 7.08053 
161 46 17.4811 -0.188175 10.4022 
162 46 17.8865 1.60847 9.62257 
163 46 18.9257 0.736355 8.15303 
164 46 18.5203 -1.06029 8.93261 
165 46 15.8211 -0.295381 9.29188 
166 46 16.2264 1.50126 8.5123 
167 46 17.2656 0.629149 7.04276 
168 46 16.8602 -1.16749 7.82234 
169 27 16.9997 9.84556 6.92496 
170 27 17.1006 7.89806 6.48103 
171 27 16.6747 7.44282 8.38139 
172 27 16.5738 9.39032 8.82531 
173 27 15.0482 9.84423 6.48727 
174 27 15.1491 7.89673 6.04335 
175 27 14.7232 7.44149 7.94371 
176 27 14.6223 9.38898 8.38763 
177 5 8.73518 11.6183 6.29238 
178 5 9.22712 13.3505 5.42202 
179 5 7.30537 13.6683 4.96823 
180 5 6.81343 11.9361 5.83859 
181 5 8.48043 12.5663 8.03495 
182 5 8.97237 14.2985 7.16459 
183 5 7.05063 14.6162 6.71079 
184 5 6.55869 12.884 7.58115 
185 10 12.429 9.6344 10.0523 
186 10 12.789 9.75595 8.08869 
187 10 12.3288 7.82035 7.8845 
188 10 11.9688 7.6988 9.84807 
189 10 10.5162 10.1229 9.73182 
190 10 10.8762 10.2445 7.76825 
191 10 10.4161 8.3089 7.56406 
192 10 10.0561 8.18734 9.52763 
193 28 17.2508 10.7529 8.1765 
194 28 17.5407 12.0395 6.67302 
195 28 15.8173 11.4569 5.8421 
196 28 15.5274 10.1702 7.34558 
197 28 16.2782 12.1688 9.20077 
198 28 16.5681 13.4555 7.69729 
199 28 14.8447 12.8729 6.86637 
200 28 14.5548 11.5862 8.36985 
201 17 14.4468 12.1332 9.44366 
202 17 13.9622 10.2124 9.71852 
203 17 12.0966 10.7515 10.1968 
204 17 12.5812 12.6724 9.92192 
205 17 13.9134 11.9927 7.52124 
206 17 13.4288 10.0719 7.7961 
207 17 11.5631 10.611 8.27436 
208 17 12.0478 12.5319 7.9995 
209 35 1.74542 12.8039 7.68219 
210 35 -0.0601502 12.4638 6.89208 
211 35 -0.589899 11.4561 8.53641 
212 35 1.21567 11.7961 9.32651 
213 35 1.06773 14.4976 8.5019 
214 35 -0.737847 14.1576 7.71179 
215 35 -1.2676 13.1498 9.35612 
216 35 0.537976 13.4899 10.1462 
217 29 3.5053 15.8533 7.46402 
218 29 3.12139 17.7965 7.18729 
219 29 1.44138 17.3254 6.20973 
220 29 1.82529 15.3822 6.48646 
221 29 2.49031 15.8981 9.18675 
222 29 2.1064 17.8413 8.91002 
223 29 0.426398 17.3702 7.93246 
224 29 0.810303 15.427 8.20919 
225 38 13.4122 15.5416 6.7531 
226 38 13.9167 16.1682 8.58415 
227 38 15.7271 15.3464 8.36657 
228 38 15.2225 14.7198 6.53551 
229 38 14.0964 17.2539 5.97857 
230 38 14.6009 17.8805 7.80963 
231 38 16.4113 17.0587 7.59204 
232 38 15.9067 16.432 5.76098 
233 22 -0.55885 5.67697 8.16264 
234 22 1.07515 4.63126 8.64899 
235 22 0.0344383 2.93084 8.48943 
236 22 -1.59957 3.97654 8.00307 
237 22 -0.0619158 5.55425 6.22925 
238 22 1.57209 4.50855 6.7156 
239 22 0.531373 2.80812 6.55604 
240 22 -1.10263 3.85383 6.06968 
241 26 13.5451 9.28203 10.7423 
242 26 13.9802 9.7368 8.84394 
243 26 15.5961 8.5617 8.9328 
244 26 15.161 8.10693 10.8312 
245 26 12.4499 7.72886 10.1192 
246 26 12.885 8.18363 8.22086 
247 26 14.5009 7.00853 8.30972 
248 26 14.0658 6.55376 10.2081 
249 32 7.35157 12.9671 10.118 
250 32 6.94267 12.3307 8.26654 
251 32 5.21864 11.5515 8.91513 
252 32 5.62753 12.188 10.7665 
253 32 6.42392 14.6957 9.72862 
254 32 6.01503 14.0592 7.87721 
255 32 4.291 13.2801 8.5258 
256 32 4.69989 13.9165 10.3772 
257 36 2.75286 15.4281 10.6136 
258 36 3.02902 13.4539 10.7757 
259 36 1.22209 13.1358 9.97954 
260 36 0.945933 15.11 9.81748 
261 36 3.5645 15.3916 8.78607 
262 36 3.84066 13.4174 8.94814 
263 36 2.03374 13.0993 8.152 
264 36 1.75758 15.0735 7.98994 
265 3 15.3806 13.1813 10.6369 
266 3 14.3994 12.5834 8.99987 
267 3 13.0138 13.9904 9.31653 
268 3 13.9949 14.5883 10.9536 
269 3 16.4376 14.4708 9.53249 
270 3 15.4564 13.873 7.89543 
271 3 14.0708 15.28 8.21209 
272 3 15.052 15.8778 9.84915 
273 37 15.4825 13.8227 10.9451 
274 37 17.1109 14.1095 9.81996 
275 37 16.5419 15.9959 9.47723 
276 37 14.9134 15.7091 10.6024 
277 37 16.4946 14.4219 12.5627 
278 37 18.123 14.7087 11.4375 
279 37 17.554 16.5951 11.0948 
280 37 15.9255 16.3083 12.22 
281 25 4.66507 2.16393 9.61635 
282 25 3.75574 1.20424 11.1171 
283 25 2.32048 2.59694 11.138 
284 25 3.22981 3.55663 9.6373 
285 25 3.61 1.09651 8.29444 
286 25 2.70067 0.136822 9.79514 
287 25 1.26542 1.52952 9.81609 
288 25 2.17475 2.48921 8.31539 
289 9 -1.23826 2.50461 10.1782 
290 9 -0.544929 3.27349 11.8893 
291 9 1.14792 2.23091 11.6719 
292 9 0.454589 1.46203 9.9607 
293 9 -0.429845 4.02838 9.16593 
294 9 0.263489 4.79725 10.8771 
295 9 1.95634 3.75468 10.6597 
296 9 1.26301 2.9858 8.94848 
297 6 11.9112 11.5243 11.2383 
298 6 13.1611 10.6215 12.5122 
299 6 11.6509 10.3367 13.7921 
300 6 10.401 11.2395 12.5182 
301 6 11.5148 9.76254 10.3786 
302 6 12.7647 8.8597 11.6525 
303 6 11.2545 8.57493 12.9324 
304 6 10.0046 9.47777 11.6585 
305 50 17.0519 6.27059 11.9854 
306 50 16.4933 7.16879 13.6828 
307 50 17.1539 8.91855 12.9743 
308 50 17.7125 8.02034 11.2769 
309 50 15.2487 6.63334 11.2001 
310 50 14.6901 7.53155 12.8975 
311 50 15.3507 9.2813 12.189 
312 50 15.9093 8.3831 10.4915 
313 42 5.97157 0.238324 12.3033 
314 42 6.75847 2.06523 12.0954 
315 42 5.14367 2.64376 11.067 
316 42 4.35677 0.816855 11.2748 
317 42 5.09225 0.810793 14.0059 
318 42 5.87915 2.6377 13.7981 
319 42 4.26435 3.21623 12.7696 
320 42 3.47745 1.38932 12.9775 
321 24 15.6683 16.0423 13.5118 
322 24 16.1951 17.1275 11.9166 
323 24 14.2877 17.1719 11.3168 
324 24 13.7609 16.0867 12.912 
325 24 15.3783 17.7217 14.5585 
326 24 15.9051 18.8069 12.9632 
327 24 13.9977 18.8513 12.3634 
328 24 13.4708 17.7661 13.9587 
329 43 11.5154 2.42433 14.205 
330 43 10.8606 1.3031 12.6838 
331 43 12.1932 2.17065 11.4707 
332 43 12.848 3.29189 12.9919 
333 43 12.8553 1.01359 14.668 
334 43 12.2005 -0.107641 13.1468 
335 43 13.5332 0.759911 11.9338 
336 43 14.1879 1.88115 13.455 
337 15 11.2941 11.1171 13.4299 
338 15 11.6633 12.8764 14.3067 
339 15 13.4889 12.2387 14.8173 
340 15 13.1196 10.4794 13.9405 
341 15 12.0227 11.8231 11.7064 
342 15 12.392 13.5824 12.5831 
343 15 14.2176 12.9447 13.0937 
344 15 13.8483 11.1855 12.217 
345 20 12.837 -0.316374 14.5161 
346 20 12.9374 1.25457 15.7499 
347 20 11.4513 2.13875 14.745 
348 20 11.3509 0.567806 13.5113 
349 20 11.5023 -1.18262 15.7278 
350 20 11.6027 0.388324 16.9616 
351 20 10.1166 1.2725 15.9567 
352 20 10.0162 -0.298436 14.723 
353 41 12.6673 5.10968 14.6011 
354 41 12.2711 6.9622 15.2423 
355 41 10.4596 6.36614 15.845 
356 41 10.8558 4.51363 15.2037 
357 41 13.4166 4.64826 16.3971 
358 41 13.0204 6.50077 17.0383 
359 41 11.2089 5.90471 17.641 
360 41 11.6051 4.0522 16.9997 
361 47 13.8389 2.74203 13.6553 
362 47 13.6261 4.66356 14.1676 
363 47 11.9639 4.20885 15.1826 
364 47 12.1767 2.28733 14.6703 
365 47 14.9306 2.42427 15.3007 
366 47 14.7178 4.34579 15.813 
367 47 13.0556 3.89109 16.828 
368 47 13.2684 1.96956 16.3157 
369 44 17.2256 7.78699 13.7592 
370 44 16.7229 9.22202 15.0584 
371 44 15.4321 7.97324 15.9383 
372 44 15.9347 6.5382 14.6391 
373 44 18.6682 7.16957 14.9992 
374 44 18.1655 8.6046 16.2985 
375 44 16.8747 7.35581 17.1784 
376 44 17.3773 5.92078 15.8791 
377 51 13.6796 10.4777 14.0131 
378 51 14.3369 12.3578 13.8303 
379 51 14.1294 12.622 15.8018 
380 51 13.4721 10.742 15.9847 
381 51 15.5571 9.84874 14.295 
382 51 16.2144 11.7288 14.1121 
383 51 16.0069 11.9931 16.0837 
384 51 15.3496 10.113 16.2665 
385 34 4.86175 1.10212 15.0562 
386 34 6.2368 2.48722 15.4929 
387 34 6.40761 1.73574 17.3385 
388 34 5.03256 0.350636 16.9018 
389 34 6.304 -0.12945 14.4212 
390 34 7.67905 1.25566 14.858 
391 34 7.84986 0.504175 16.7035 
392 34 6.47481 -0.880931 16.2668 
393 18 15.6542 10.6913 11.7098 
394 18 15.2108 12.5097 11.0048 
395 18 14.9201 13.163 12.8726 
396 18 15.3635 11.3446 13.5776 
397 18 17.5826 11.2079 11.8292 
398 18 17.1392 13.0262 11.1242 
399 18 16.8486 13.6795 12.992 
400 18 17.292 11.8612 13.697 
401 8 2.37259 15.5829 11.588 
402 8 1.55859 17.1243 12.5686 
403 8 -0.260939 16.3442 12.2844 
404 8 0.553052 14.8028 11.3038 
405 8 2.53603 14.5751 13.3077 
406 8 1.72204 16.1165 14.2884 
407 8 -0.0974945 15.3364 14.0041 
408 8 0.716497 13.795 13.0235 
409 53 0.0888823 1.30315 10.3635 
410 53 1.7476 0.727478 11.3213 
411 53 1.30276 1.95979 12.8324 
412 53 -0.355959 2.53546 11.8747 
413 53 -0.936193 -0.16314 11.2575 
414 53 0.722523 -0.738816 12.2153 
415 53 0.277682 0.493491 13.7264 
416 53 -1.38103 1.06917 12.7687 
417 33 2.79175 19.3149 11.2567 
418 33 2.52296 19.4385 13.2347 
419 33 1.40989 17.7775 13.1873 
420 33 1.67868 17.6539 11.2093 
421 33 4.43152 18.2077 11.5488 
422 33 4.16273 18.3313 13.5267 
423 33 3.04966 16.6703 13.4793 
424 33 3.31844 16.5467 11.5013 
425 21 16.3392 1.43379 12.9711 
426 21 18.0339 1.89794 13.9263 
427 21 17.0956 3.39493 14.8637 
428 21 15.4009 2.93078 13.9085 
429 21 15.8418 0.19138 14.4574 
430 21 17.5365 0.655527 15.4126 
431 21 16.5982 2.15252 16.3499 
432 21 14.9035 1.68837 15.3948 
