ITEM: TIMESTEP
3000
ITEM: NUMBER OF ENTRIES
432
ITEM: BOX BOUNDS pp pp pp
0 18
0 18
0 18
ITEM: ENTRIES index c_1[1] c_1[2] c_1[3] c_1[4] 
1 38 12.5563 0.197236 0.73772 
2 38 11.543 -1.45326 1.23684 
3 38 12.342 -1.38963 3.06923 
4 38 13.3552 0.26087 2.5701 
5 38 11.0282 1.32498 1.36481 
6 38 10.0149 -0.325523 1.86393 
7 38 10.8139 -0.261889 3.69632 
8 38 11.8272 1.38861 3.1972 
9 46 14.2672 6.08183 4.13976 
10 46 15.1756 4.48589 3.34751 
11 46 13.8157 3.29026 4.1966 
12 46 12.9072 4.8862 4.98886 
13 46 13.116 6.23487 2.51146 
14 46 14.0244 4.63893 1.7192 
15 46 12.6645 3.4433 2.5683 
16 46 11.756 5.03924 3.36056 
17 11 15.3399 7.23336 4.93702 
18 11 16.0704 8.99795 4.34321 
19 11 17.1734 8.07389 2.95414 
20 11 16.4429 6.30931 3.54794 
21 11 13.84 7.41324 3.62635 
22 11 14.5705 9.17783 3.03254 
23 11 15.6735 8.25377 1.64347 
24 11 14.943 6.48919 2.23727 
25 48 15.9912 12.046 1.28669 
26 48 16.031 10.0906 1.70484 
27 48 14.0651 10.1287 2.07029 
28 48 14.0253 12.0841 1.65213 
29 48 15.626 11.6277 -0.634667 
30 48 15.6658 9.67228 -0.216509 
31 48 13.6998 9.71041 0.148938 
32 48 13.66 11.6658 -0.269219 
33 54 14.8056 17.538 4.97104 
34 54 16.6398 17.6403 4.18039 
35 54 16.0673 16.4289 2.69551 
36 54 14.2331 16.3267 3.48616 
37 54 14.2508 19.1262 3.88937 
38 54 16.0851 19.2284 3.09872 
39 54 15.5125 18.0171 1.61384 
40 54 13.6783 17.9148 2.40449 
41 19 1.56511 6.97417 0.831282 
42 19 0.316676 8.31662 1.63081 
43 19 0.205571 7.21955 3.29937 
44 19 1.454 5.87709 2.49984 
45 19 3.12366 7.97129 1.59067 
46 19 1.87522 9.31374 2.39019 
47 19 1.76412 8.21667 4.05875 
48 19 3.01255 6.87422 3.25923 
49 13 14.0128 11.9314 2.57447 
50 13 15.2304 10.3666 2.31208 
51 13 15.7645 10.4594 4.23722 
52 13 14.5469 12.0242 4.49961 
53 13 12.5187 10.6893 3.04883 
54 13 13.7363 9.12454 2.78645 
55 13 14.2704 9.21732 4.71158 
56 13 13.0528 10.7821 4.97397 
57 7 15.5618 11.6277 3.69342 
58 7 17.0638 12.7184 2.94889 
59 7 18.3543 11.7452 4.12675 
60 7 16.8523 10.6545 4.87129 
61 7 15.8418 10.2627 2.25874 
62 7 17.3439 11.3534 1.51421 
63 7 18.6344 10.3802 2.69208 
64 7 17.1324 9.2895 3.43661 
65 8 4.36167 14.0341 0.815694 
66 8 4.51376 12.6943 2.29281 
67 8 2.63659 13.0982 2.85239 
68 8 2.4845 14.438 1.37528 
69 8 3.68854 12.6052 -0.411091 
70 8 3.84064 11.2654 1.06602 
71 8 1.96347 11.6692 1.62561 
72 8 1.81137 13.009 0.148496 
73 33 5.81607 15.2518 3.00879 
74 33 6.67848 13.4799 3.35031 
75 33 5.04109 12.5524 2.67301 
76 33 4.17869 14.3243 2.33148 
77 33 6.57451 15.2642 1.15821 
78 33 7.43691 13.4923 1.49974 
79 33 5.79952 12.5649 0.822432 
80 33 4.93712 14.3368 0.48091 
81 17 12.3231 14.0935 6.70853 
82 17 11.4403 12.3385 7.08376 
83 17 9.86233 12.8984 5.98997 
84 17 10.7451 14.6534 5.61473 
85 17 13.1779 13.3147 5.07671 
86 17 12.2951 11.5597 5.45194 
87 17 10.7171 12.1196 4.35815 
88 17 11.5998 13.8746 3.98292 
89 18 2.19711 14.8109 1.92341 
90 18 1.78166 12.8545 1.92517 
91 18 -0.095392 13.2536 2.48854 
92 18 0.320055 15.21 2.48679 
93 18 1.64567 14.9262 0.00440046 
94 18 1.23022 12.9699 0.00615797 
95 18 -0.646828 13.369 0.569532 
96 18 -0.231382 15.3253 0.567775 
97 14 1.45309 0.434043 1.72548 
98 14 3.21109 0.724059 0.817014 
99 14 2.74573 2.64797 0.530648 
100 14 0.987722 2.35795 1.43911 
101 14 2.28546 0.897144 3.48408 
102 14 4.04347 1.18716 2.57562 
103 14 3.5781 3.11107 2.28925 
104 14 1.8201 2.82105 3.19772 
105 3 13.7764 15.0834 6.11719 
106 3 11.8738 14.6529 5.67594 
107 3 11.4691 16.605 5.51642 
108 3 13.3717 17.0355 5.95767 
109 3 14.2414 15.0209 4.173 
110 3 12.3388 14.5904 3.73175 
111 3 11.9341 16.5425 3.57224 
112 3 13.8367 16.9731 4.01349 
113 5 19.2702 7.89914 4.36768 
114 5 18.1848 6.5123 5.31561 
115 5 18.4931 7.45727 7.05112 
116 5 19.5785 8.8441 6.10319 
117 5 17.6189 8.98713 4.06863 
118 5 16.5335 7.60029 5.01656 
119 5 16.8418 8.54526 6.75207 
120 5 17.9272 9.93209 5.80414 
121 4 12.6056 10.3026 5.8295 
122 4 13.5757 9.1901 4.47995 
123 4 12.2268 7.73189 4.71245 
124 4 11.2567 8.84441 6.06199 
125 4 11.4923 11.1001 4.37187 
126 4 12.4624 9.98753 3.02233 
127 4 11.1135 8.52933 3.25482 
128 4 10.1434 9.64185 4.60437 
129 10 9.82718 12.2475 6.21391 
130 10 11.1761 10.9435 5.52134 
131 10 9.77674 9.51502 5.48534 
132 10 8.42778 10.8191 6.17792 
133 10 9.356 12.7564 4.338 
134 10 10.705 11.4523 3.64543 
135 10 9.30557 10.0239 3.60943 
136 10 7.95661 11.328 4.302 
137 12 15.3041 13.9605 1.40394 
138 12 16.6233 12.5978 2.03842 
139 12 16.5531 13.3852 3.87556 
140 12 15.2339 14.7479 3.24108 
141 12 13.8025 12.7264 1.87548 
142 12 15.1218 11.3637 2.50996 
143 12 15.0516 12.1511 4.3471 
144 12 13.7323 13.5138 3.71262 
145 16 8.57369 14.1325 4.49085 
146 16 9.8997 14.2373 2.9973 
147 16 9.07793 15.956 2.38836 
148 16 7.75192 15.8512 3.88191 
149 16 9.82524 15.1499 5.67343 
150 16 11.1513 15.2547 4.17988 
151 16 10.3295 16.9734 3.57095 
152 16 9.00347 16.8686 5.0645 
153 29 18.9832 -0.415633 7.2831 
154 29 19.2737 1.53743 6.96505 
155 29 18.2243 1.41696 5.26674 
156 29 17.9338 -0.536097 5.58478 
157 29 17.3056 -0.00205009 8.29036 
158 29 17.5961 1.95101 7.97231 
159 29 16.5467 1.83054 6.27399 
160 29 16.2562 -0.122514 6.59204 
161 2 1.84731 0.806467 7.48256 
162 2 1.42501 1.87714 5.84692 
163 2 2.43101 3.43096 6.60429 
164 2 2.85331 2.36029 8.23994 
165 2 3.52351 0.143662 6.61592 
166 2 3.1012 1.21433 4.98028 
167 2 4.1072 2.76815 5.73765 
168 2 4.52951 1.69748 7.37329 
169 6 2.7748 6.22023 6.09513 
170 6 4.58276 7.06799 6.20731 
171 6 3.73118 8.82882 6.6248 
172 6 1.92323 7.98105 6.51263 
173 6 2.85301 5.79505 8.04785 
174 6 4.66097 6.64282 8.16003 
175 6 3.80939 8.40365 8.57752 
176 6 2.00144 7.55588 8.46535 
177 27 14.7149 8.82873 7.25986 
178 27 14.0346 7.16138 6.38974 
179 27 12.4492 7.17204 7.60892 
180 27 13.1295 8.83938 8.47904 
181 27 13.7032 9.93319 5.93453 
182 27 13.0228 8.26585 5.06441 
183 27 11.4374 8.2765 6.28359 
184 27 12.1178 9.94385 7.15371 
185 26 10.3232 11.461 7.99919 
186 26 11.7975 10.3014 7.30514 
187 26 11.171 8.80488 8.47477 
188 26 9.69672 9.96453 9.16882 
189 26 9.12571 10.8163 6.53282 
190 26 10.6 9.6566 5.83877 
191 26 9.9735 8.16011 7.00839 
192 26 8.49922 9.31977 7.70245 
193 28 14.3398 11.3037 8.43802 
194 28 16.0428 10.8961 7.47174 
195 28 15.0432 9.70799 6.21115 
196 28 13.3402 10.1155 7.17743 
197 28 14.0226 12.86 7.22262 
198 28 15.7256 12.4525 6.25634 
199 28 14.726 11.2643 4.99574 
200 28 13.023 11.6719 5.96203 
201 35 17.5424 12.8448 8.60259 
202 35 16.6668 11.6208 7.28535 
203 35 14.9023 11.9235 8.17702 
204 35 15.778 13.1474 9.49427 
205 35 17.1961 14.3973 7.39025 
206 35 16.3204 13.1733 6.07301 
207 35 14.556 13.476 6.96469 
208 35 15.4316 14.7 8.28193 
209 31 3.42792 14.2749 6.19398 
210 31 2.9198 12.3434 6.08872 
211 31 1.97281 12.4969 7.84362 
212 31 2.48094 14.4284 7.94888 
213 31 1.7412 14.7706 5.24043 
214 31 1.23307 12.8391 5.13517 
215 31 0.286091 12.9926 6.89007 
216 31 0.794215 14.9241 6.99533 
217 53 3.87696 16.3595 2.0687 
218 53 4.74062 14.8483 3.05382 
219 53 4.29219 15.7263 4.79391 
220 53 3.42853 17.2375 3.80879 
221 53 2.12967 15.3872 2.10904 
222 53 2.99333 13.876 3.09416 
223 53 2.5449 14.754 4.83425 
224 53 1.68124 16.2652 3.84914 
225 21 1.96782 16.7538 5.57539 
226 21 0.713297 16.2733 4.09374 
227 21 -0.237723 18.0163 4.33373 
228 21 1.0168 18.4968 5.81538 
229 21 3.20141 17.6089 4.25361 
230 21 1.94688 17.1284 2.77196 
231 21 0.995864 18.8713 3.01195 
232 21 2.25039 19.3518 4.4936 
233 23 7.10407 17.7941 7.30688 
234 23 7.82077 15.9285 7.22856 
235 23 6.3874 15.4326 5.92491 
236 23 5.6707 17.2981 6.00323 
237 23 8.30065 18.3173 5.79217 
238 23 9.01735 16.4518 5.71385 
239 23 7.58398 15.9559 4.41019 
240 23 6.86728 17.8214 4.48852 
241 25 2.54122 2.26142 11.4832 
242 25 1.36042 1.76229 9.94808 
243 25 0.364036 3.48408 10.1547 
244 25 1.54484 3.98321 11.6898 
245 25 3.81123 3.14817 10.218 
246 25 2.63043 2.64903 8.68286 
247 25 1.63405 4.37082 8.88945 
248 25 2.81485 4.86995 10.4246 
249 30 2.18756 12.4977 8.50498 
250 30 3.21183 12.7049 6.79972 
251 30 4.92729 12.6853 7.82773 
252 30 3.90302 12.4781 9.53299 
253 30 2.27738 10.5085 8.31715 
254 30 3.30164 10.7158 6.61189 
255 30 5.01711 10.6962 7.63991 
256 30 3.99284 10.4889 9.34517 
257 36 18.1645 16.4967 9.75637 
258 36 18.3679 14.6408 9.03909 
259 36 16.5521 14.7625 8.20959 
260 36 16.3487 16.6183 8.92687 
261 36 18.9779 17.2322 8.08382 
262 36 19.1812 15.3764 7.36654 
263 36 17.3654 15.498 6.53704 
264 36 17.1621 17.3539 7.25432 
265 37 14.7743 16.3795 11.4849 
266 37 15.6152 15.3812 9.96956 
267 37 15.2779 16.9362 8.75791 
268 37 14.437 17.9346 10.2732 
269 37 16.5573 17.1445 11.9704 
270 37 17.3982 16.1462 10.455 
271 37 17.0609 17.7012 9.24339 
272 37 16.22 18.6995 10.7587 
273 24 16.2099 1.23074 12.1308 
274 24 17.0646 0.00579853 10.8008 
275 24 16.8116 1.38144 9.37125 
276 24 15.9569 2.60638 10.7013 
277 24 18.0003 2.00992 12.5637 
278 24 18.855 0.784985 11.2337 
279 24 18.602 2.16063 9.80417 
280 24 17.7472 3.38557 11.1342 
281 22 3.91654 3.01156 9.55857 
282 22 4.61058 4.79722 10.1328 
283 22 5.70516 3.91443 11.555 
284 22 5.01113 2.12877 10.9807 
285 22 5.43977 2.83233 8.27495 
286 22 6.1338 4.61798 8.8492 
287 22 7.22838 3.73519 10.2714 
288 22 6.53435 1.94954 9.69712 
289 34 6.76885 6.71827 11.6409 
290 34 7.82806 8.22657 12.4175 
291 34 8.293 7.088 13.9946 
292 34 7.23379 5.5797 13.218 
293 34 8.40039 6.06352 10.6872 
294 34 9.45959 7.57182 11.4638 
295 34 9.92453 6.43326 13.041 
296 34 8.86533 4.92495 12.2644 
297 43 16.5016 5.76065 12.7701 
298 43 15.7333 3.92934 13.0067 
299 43 14.4501 4.27461 11.5119 
300 43 15.2185 6.10592 11.2754 
301 43 17.8295 5.03463 11.4626 
302 43 17.0611 3.20332 11.6991 
303 43 15.778 3.54859 10.2044 
304 43 16.5463 5.3799 9.96781 
305 45 7.17973 18.4559 11.2653 
306 45 8.49695 16.976 10.9917 
307 45 6.99205 15.6772 10.7716 
308 45 5.67483 17.1571 11.0452 
309 45 7.16488 18.8067 9.29631 
310 45 8.4821 17.3268 9.02273 
311 45 6.9772 16.028 8.80269 
312 45 5.65998 17.5079 9.07628 
313 32 2.96857 15.089 11.4651 
314 32 2.39269 14.1277 9.80847 
315 32 3.87227 15.0029 8.78629 
316 32 4.44816 15.9642 10.4429 
317 32 4.1848 13.5691 11.9242 
318 32 3.60892 12.6078 10.2676 
319 32 5.0885 13.483 9.24541 
320 32 5.66438 14.4443 10.902 
321 20 18.068 4.8504 13.6475 
322 20 16.6396 5.59991 14.8298 
323 20 15.3092 4.34738 14.0166 
324 20 16.7376 3.59787 12.8343 
325 20 18.5037 3.48314 15.0406 
326 20 17.0753 4.23265 16.2229 
327 20 15.7449 2.98011 15.4097 
328 20 17.1733 2.23061 14.2274 
329 47 15.9961 5.97637 12.9187 
330 47 14.6235 4.52534 12.8161 
331 47 14.7221 4.29186 14.8 
332 47 16.0947 5.74289 14.9026 
333 47 14.5448 7.33284 13.1504 
334 47 13.1722 5.88181 13.0479 
335 47 13.2708 5.64832 15.0317 
336 47 14.6433 7.09935 15.1343 
337 51 8.66799 3.75873 14.5149 
338 51 9.31664 5.3592 15.5238 
339 51 11.2063 4.75922 15.2606 
340 51 10.5576 3.15875 14.2518 
341 51 8.76004 4.79725 12.8082 
342 51 9.4087 6.39772 13.817 
343 51 11.2983 5.79774 13.5539 
344 51 10.6497 4.19727 12.545 
345 41 13.1093 3.16051 14.4109 
346 41 12.6883 2.2997 16.1664 
347 41 13.9499 3.55196 17.083 
348 41 14.3709 4.41277 15.3275 
349 41 11.6156 4.46083 14.6903 
350 41 11.1946 3.60002 16.4457 
351 41 12.4562 4.85228 17.3624 
352 41 12.8772 5.7131 15.6069 
353 42 15.229 0.969844 12.6427 
354 42 15.7923 1.93721 14.3001 
355 42 14.4418 3.3642 13.9262 
356 42 13.8785 2.39683 12.2688 
357 42 13.8657 -0.0440116 13.6979 
358 42 14.429 0.923358 15.3552 
359 42 13.0784 2.35035 14.9814 
360 42 12.5151 1.38298 13.324 
361 9 3.81581 3.25849 13.6928 
362 9 5.24467 3.86292 14.955 
363 9 6.64408 3.24635 13.666 
364 9 5.21522 2.64192 12.4038 
365 9 3.81536 5.06251 12.8294 
366 9 5.24422 5.66694 14.0915 
367 9 6.64363 5.05037 12.8026 
368 9 5.21476 4.44594 11.5404 
369 44 0.676053 9.54854 13.9701 
370 44 0.563094 11.3043 14.9212 
371 44 0.650234 10.3569 16.6804 
372 44 0.763193 8.60112 15.7293 
373 44 2.67096 9.68934 13.9471 
374 44 2.558 11.4451 14.8982 
375 44 2.64514 10.4977 16.6574 
376 44 2.7581 8.74192 15.7063 
377 50 10.1623 11.1135 14.8691 
378 50 10.1165 13.099 14.633 
379 50 10.3472 12.8696 12.6596 
380 50 10.393 10.8841 12.8958 
381 50 8.17614 11.0411 14.6453 
382 50 8.13038 13.0266 14.4092 
383 50 8.36111 12.7972 12.4358 
384 50 8.40688 10.8117 12.672 
385 40 13.8629 2.9497 1.80371 
386 40 13.209 4.55864 0.811884 
387 40 12.6007 3.38582 -0.689599 
388 40 13.2546 1.77688 0.30223 
389 40 12.0734 2.76046 2.67654 
390 40 11.4195 4.36939 1.68471 
391 40 10.8112 3.19658 0.183228 
392 40 11.4651 1.58764 1.17506 
393 49 18.1906 5.11309 0.98295 
394 49 16.2261 4.91928 0.661837 
395 49 15.8531 5.74805 2.44341 
396 49 17.8176 5.94187 2.76453 
397 49 18.151 6.92294 0.132734 
398 49 16.1865 6.72913 -0.188379 
399 49 15.8135 7.55791 1.5932 
400 49 17.778 7.75172 1.91431 
401 15 1.72582 1.30885 14.0928 
402 15 0.268049 2.53473 14.7028 
403 15 1.20527 2.77846 16.4527 
404 15 2.66304 1.55258 15.8427 
405 15 2.72408 2.8702 13.3407 
406 15 1.26631 4.09608 13.9507 
407 15 2.20352 4.33981 15.7006 
408 15 3.6613 3.11393 15.0906 
409 52 12.7289 11.9374 1.74644 
410 52 12.9489 10.1581 0.860067 
411 52 11.1927 9.56641 1.61203 
412 52 10.9727 11.3457 2.49841 
413 52 11.7977 12.6331 0.118904 
414 52 12.0177 10.8538 -0.767473 
415 52 10.2614 10.2621 -0.0155097 
416 52 10.0415 12.0414 0.870867 
417 39 11.7533 13.1343 0.185212 
418 39 10.6053 12.9014 1.80629 
419 39 10.1638 14.8518 1.77383 
420 39 11.3118 15.0847 0.152751 
421 39 10.1762 12.7578 -0.985702 
422 39 9.0282 12.5249 0.635379 
423 39 8.58671 14.4753 0.602918 
424 39 9.73469 14.7082 -1.01816 
425 1 11.4379 14.2385 16.6858 
426 1 13.2494 14.6358 15.9372 
427 1 13.9732 14.8298 17.7915 
428 1 12.1617 14.4324 18.5402 
429 1 11.8789 12.288 16.7177 
430 1 13.6904 12.6853 15.969 
431 1 14.4142 12.8792 17.8233 
432 1 12.6027 12.4819 18.572 
