ITEM: TIMESTEP
9000
ITEM: NUMBER OF ENTRIES
432
ITEM: BOX BOUNDS pp pp pp
0 18
0 18
0 18
ITEM: ENTRIES index c_1[1] c_1[2] c_1[3] c_1[4] 
1 44 17.0381 0.989637 4.56322 
2 44 17.3361 -0.923308 4.06138 
3 44 16.414 -0.608725 2.3147 
4 44 16.116 1.30422 2.81653 
5 44 18.7876 1.48124 3.7282 
6 44 19.0856 -0.431701 3.22637 
7 44 18.1636 -0.117118 1.47968 
8 44 17.8656 1.79583 1.98152 
9 45 10.0892 17.0904 -1.03632 
10 45 12.0533 16.7536 -1.20652 
11 45 12.3814 17.8321 0.445478 
12 45 10.4174 18.169 0.615679 
13 45 9.90281 15.4402 0.0781064 
14 45 11.8669 15.1033 -0.0920948 
15 45 12.195 16.1819 1.5599 
16 45 10.2309 16.5187 1.7301 
17 48 13.235 11.6952 2.14357 
18 48 15.0005 10.8742 2.60089 
19 48 14.4184 10.6831 4.50475 
20 48 12.653 11.504 4.04743 
21 48 12.4972 9.88148 1.73593 
22 48 14.2627 9.06052 2.19325 
23 48 13.6806 8.86939 4.09711 
24 48 11.9152 9.69034 3.63979 
25 12 12.7595 13.1173 2.35926 
26 12 14.7098 13.5486 2.45932 
27 12 14.3039 15.1097 3.6418 
28 12 12.3535 14.6783 3.54174 
29 12 12.9364 11.9438 3.96914 
30 12 14.8868 12.3752 4.06921 
31 12 14.4808 13.9363 5.25169 
32 12 12.5305 13.5049 5.15162 
33 7 15.1441 13.3328 4.72735 
34 7 14.9785 14.4737 3.09307 
35 7 16.9268 14.912 3.20152 
36 7 17.0925 13.7711 4.8358 
37 7 15.5641 11.7497 3.57957 
38 7 15.3985 12.8906 1.9453 
39 7 17.3468 13.3289 2.05375 
40 7 17.5125 12.188 3.68803 
41 34 1.90112 4.32817 4.47476 
42 34 1.49739 5.52031 6.02905 
43 34 1.31085 7.07665 4.78688 
44 34 1.71458 5.88452 3.23259 
45 34 -0.0487989 3.93245 4.27178 
46 34 -0.452531 5.12458 5.82607 
47 34 -0.639074 6.68093 4.5839 
48 34 -0.235342 5.4888 3.02961 
49 1 10.1059 17.2342 1.87287 
50 1 11.5802 16.0025 2.42892 
51 1 12.0601 17.249 3.91755 
52 1 10.5857 18.4807 3.3615 
53 1 8.84254 16.2702 3.08727 
54 1 10.3169 15.0385 3.64332 
55 1 10.7968 16.285 5.13195 
56 1 9.32242 17.5167 4.5759 
57 25 16.0751 7.85329 1.11817 
58 25 16.8394 6.26949 2.07076 
59 25 18.6624 7.08492 1.9638 
60 25 17.8982 8.66872 1.01121 
61 25 15.7714 8.76249 2.87348 
62 25 16.5357 7.17869 3.82607 
63 25 18.3588 7.99411 3.71912 
64 25 17.5945 9.57792 2.76653 
65 22 8.03069 3.75 5.44794 
66 22 7.20802 5.18757 4.32696 
67 22 9.0277 5.76135 3.72736 
68 22 9.85037 4.32378 4.84834 
69 22 7.9213 2.48344 3.90397 
70 22 7.09864 3.92101 2.78298 
71 22 8.91832 4.49479 2.18338 
72 22 9.74099 3.05722 3.30436 
73 13 13.0238 11.8779 4.52905 
74 13 14.9047 11.4418 4.0078 
75 13 15.5608 13.0074 5.06539 
76 13 13.6798 13.4435 5.58664 
77 13 13.2012 10.7123 6.14454 
78 13 15.0822 10.2761 5.62329 
79 13 15.7382 11.8417 6.68088 
80 13 13.8573 12.2778 7.20213 
81 11 3.58682 18.8429 7.63535 
82 11 1.95991 19.2114 6.532 
83 11 2.6375 17.9697 5.11816 
84 11 4.2644 17.6011 6.22151 
85 11 2.64127 17.319 8.5206 
86 11 1.01436 17.6875 7.41725 
87 11 1.69195 16.4458 6.00341 
88 11 3.31886 16.0772 7.10676 
89 49 6.63078 18.4305 4.27932 
90 49 6.4532 16.5746 5.00324 
91 49 7.25096 17.1743 6.73642 
92 49 7.42854 19.0302 6.0125 
93 49 4.80539 18.8732 4.96636 
94 49 4.62781 17.0173 5.69028 
95 49 5.42557 17.617 7.42346 
96 49 5.60315 19.4729 6.69954 
97 40 19.2763 16.1972 5.64979 
98 40 17.7386 17.3686 5.13656 
99 40 17.4106 16.2316 3.52422 
100 40 18.9482 15.0602 4.03745 
101 40 18.0402 15.0417 6.71607 
102 40 16.5025 16.2132 6.20285 
103 40 16.1745 15.0762 4.59051 
104 40 17.7121 13.9047 5.10374 
105 52 7.6836 -0.011687 7.34958 
106 52 6.83837 -1.45975 8.43985 
107 52 7.29906 -0.467883 10.1144 
108 52 8.14429 0.980178 9.02408 
109 52 5.9305 0.947125 7.26396 
110 52 5.08527 -0.500937 8.35424 
111 52 5.54597 0.490929 10.0287 
112 52 6.3912 1.93899 8.93846 
113 4 16.1894 7.44076 8.41223 
114 4 14.809 8.609 7.55804 
115 4 14.6066 7.28429 6.0734 
116 4 15.987 6.11604 6.92759 
117 4 14.7564 6.50249 9.4448 
118 4 13.376 7.67074 8.59061 
119 4 13.1736 6.34603 7.10597 
120 4 14.554 5.17778 7.96016 
121 27 17.5093 9.19274 6.99068 
122 27 17.1109 8.04497 5.40199 
123 27 18.4403 6.6955 6.04361 
124 27 18.8386 7.84327 7.63231 
125 27 16.0691 8.26455 8.02237 
126 27 15.6708 7.11677 6.43367 
127 27 17.0001 5.7673 7.0753 
128 27 17.3985 6.91507 8.66399 
129 54 0.414129 15.0359 7.09177 
130 54 1.90983 14.6355 8.35766 
131 54 0.58912 13.9908 9.7142 
132 54 -0.906582 14.3913 8.44831 
133 54 0.550498 13.1855 6.34522 
134 54 2.0462 12.785 7.61111 
135 54 0.725489 12.1404 8.96765 
136 54 -0.770213 12.5409 7.70175 
137 31 7.76327 16.2039 5.32449 
138 31 9.63814 15.5203 5.45694 
139 31 9.98823 16.7746 6.97493 
140 31 8.11336 17.4582 6.84248 
141 31 7.16136 14.8041 6.61993 
142 31 9.03623 14.1205 6.75238 
143 31 9.38632 15.3747 8.27037 
144 31 7.51145 16.0583 8.13792 
145 5 13.0836 14.776 4.97817 
146 5 12.4081 16.0095 6.40025 
147 5 10.6376 15.08 6.36541 
148 5 11.3131 13.8465 4.94334 
149 5 13.7231 13.5054 6.38405 
150 5 13.0476 14.7388 7.80613 
151 5 11.277 13.8093 7.77129 
152 5 11.9525 12.5759 6.34922 
153 38 15.3763 12.9972 6.09313 
154 38 14.8589 14.5749 7.20813 
155 38 16.3539 14.1707 8.47373 
156 38 16.8713 12.593 7.35873 
157 38 16.6 14.158 5.01841 
158 38 16.0826 15.7357 6.13341 
159 38 17.5776 15.3315 7.399 
160 38 18.095 13.7538 6.28401 
161 39 12.0611 17.0556 8.82691 
162 39 10.1819 16.5473 8.36804 
163 39 10.8627 15.3062 6.95516 
164 39 12.7418 15.8145 7.41402 
165 39 12.1354 15.5719 10.166 
166 39 10.2563 15.0636 9.70714 
167 39 10.937 13.8225 8.29426 
168 39 12.8161 14.3308 8.75313 
169 46 16.0263 17.4015 8.64805 
170 46 16.6556 18.6783 7.24317 
171 46 18.5476 18.3778 7.81758 
172 46 17.9183 17.101 9.22246 
173 46 16.182 15.8917 7.3456 
174 46 16.8113 17.1686 5.94072 
175 46 18.7033 16.8681 6.51513 
176 46 18.074 15.5912 7.92001 
177 53 15.7742 0.808712 7.40512 
178 53 17.6495 1.38392 7.79558 
179 53 16.9544 2.91832 8.87374 
180 53 15.0791 2.34311 8.48328 
181 53 15.7848 -0.337923 9.04375 
182 53 17.66 0.237287 9.43421 
183 53 16.9649 1.77168 10.5124 
184 53 15.0896 1.19647 10.1219 
185 33 -0.363755 2.46755 5.45416 
186 33 0.82317 1.32047 6.58351 
187 33 2.42579 2.03081 5.62068 
188 33 1.23886 3.17789 4.49134 
189 33 -0.212646 3.9439 6.79489 
190 33 0.974278 2.79682 7.92423 
191 33 2.57689 3.50717 6.96141 
192 33 1.38997 4.65424 5.83206 
193 9 14.2661 4.16544 8.39556 
194 9 16.0997 3.47985 8.80505 
195 9 15.8645 2.03609 7.44115 
196 9 14.0309 2.72168 7.03166 
197 9 15.0292 5.36774 6.99124 
198 9 16.8629 4.68215 7.40073 
199 9 16.6277 3.23838 6.03684 
200 9 14.794 3.92397 5.62735 
201 42 1.50849 4.94744 6.20844 
202 42 2.6378 6.40117 6.99031 
203 42 1.09425 6.99554 8.11466 
204 42 -0.0350594 5.54181 7.33279 
205 42 2.09339 3.70914 7.66601 
206 42 3.2227 5.16287 8.44788 
207 42 1.67914 5.75724 9.57223 
208 42 0.549834 4.30351 8.79036 
209 35 2.91867 11.4782 9.90728 
210 35 1.53087 10.9476 8.56845 
211 35 1.01917 9.39128 9.71568 
212 35 2.40697 9.92189 11.0545 
213 35 1.5725 12.6168 10.8514 
214 35 0.184701 12.0862 9.5126 
215 35 -0.327 10.5299 10.6598 
216 35 1.0608 11.0605 11.9987 
217 28 18.5029 9.17924 9.59273 
218 28 19.319 10.4208 8.25383 
219 28 17.9281 9.8933 6.91697 
220 28 17.1121 8.65176 8.25587 
221 28 17.3199 10.6558 10.2409 
222 28 18.136 11.8974 8.90202 
223 28 16.7451 11.3699 7.56517 
224 28 15.9291 10.1284 8.90407 
225 32 13.516 12.156 8.19766 
226 32 12.9921 10.5146 7.1821 
227 32 13.5875 9.37618 8.7149 
228 32 14.1114 11.0176 9.73046 
229 32 11.6799 12.2552 8.98452 
230 32 11.156 10.6138 7.96896 
231 32 11.7514 9.47537 9.50176 
232 32 12.2753 11.1168 10.5173 
233 3 16.0995 12.3992 10.374 
234 3 16.1477 10.9004 9.05059 
235 3 14.2816 11.3419 8.48258 
236 3 14.2333 12.8406 9.806 
237 3 16.8172 13.6477 8.98623 
238 3 16.8655 12.149 7.66281 
239 3 14.9994 12.5905 7.0948 
240 3 14.9511 14.0892 8.41822 
241 2 7.32629 14.1737 10.4924 
242 2 8.0665 15.3453 11.9344 
243 2 8.66818 16.6627 10.5551 
244 2 7.92797 15.4911 9.11313 
245 2 5.56843 15.118 10.6275 
246 2 6.30864 16.2896 12.0695 
247 2 6.91033 17.607 10.6902 
248 2 6.17011 16.4354 9.24824 
249 16 5.73747 2.05275 10.0875 
250 16 6.32604 0.917531 11.6253 
251 16 4.87708 1.70197 12.759 
252 16 4.28851 2.8372 11.2212 
253 16 4.49083 0.605025 9.49591 
254 16 5.07941 -0.530198 11.0337 
255 16 3.63045 0.254245 12.1674 
256 16 3.04187 1.38947 10.6296 
257 50 4.19648 3.21652 11.1075 
258 50 3.76809 2.49081 9.29371 
259 50 2.5795 4.06129 8.94608 
260 50 3.00789 4.787 10.7599 
261 50 5.74688 4.21997 10.3398 
262 50 5.31849 3.49426 8.52604 
263 50 4.12991 5.06475 8.17841 
264 50 4.5583 5.79046 9.99219 
265 10 15.9915 7.10121 11.8315 
266 10 15.563 5.7767 10.3955 
267 10 15.5011 4.3165 11.7608 
268 10 15.9296 5.64101 13.1968 
269 10 14.0389 7.43811 12.1034 
270 10 13.6104 6.1136 10.6674 
271 10 13.5485 4.65341 12.0326 
272 10 13.977 5.97792 13.4686 
273 26 0.67237 7.61704 11.1445 
274 26 -0.922674 7.51836 9.94194 
275 26 0.191057 6.63116 8.53749 
276 26 1.7861 6.72984 9.74003 
277 26 0.208218 5.82731 11.907 
278 26 -1.38683 5.72863 10.7045 
279 26 -0.273095 4.84143 9.30001 
280 26 1.32195 4.94011 10.5025 
281 17 15.447 10.1276 10.3163 
282 17 16.6603 8.5478 10.1378 
283 17 15.8958 7.77109 11.8147 
284 17 14.6824 9.35091 11.9933 
285 17 14.0529 9.17847 9.2412 
286 17 15.2663 7.59865 9.06265 
287 17 14.5018 6.82194 10.7396 
288 17 13.2884 8.40177 10.9182 
289 18 15.8335 8.93045 11.8336 
290 18 14.9686 10.6659 11.3438 
291 18 15.6753 11.492 13.0225 
292 18 16.5402 9.75653 13.5124 
293 18 17.4925 9.48331 10.8631 
294 18 16.6276 11.2188 10.3732 
295 18 17.3344 12.0449 12.0519 
296 18 18.1993 10.3094 12.5418 
297 36 2.49182 13.5416 13.2403 
298 36 3.21076 11.6753 13.2562 
299 36 1.82905 11.1317 11.9163 
300 36 1.11011 12.9979 11.9004 
301 36 3.74641 14.0123 11.7556 
302 36 4.46535 12.146 11.7714 
303 36 3.08364 11.6024 10.4315 
304 36 2.3647 13.4686 10.4157 
305 29 2.84179 14.126 11.0668 
306 29 3.48276 15.7452 10.0833 
307 29 2.1768 15.3706 8.61555 
308 29 1.53583 13.7514 9.59908 
309 29 1.46934 15.2386 12.0041 
310 29 2.11031 16.8578 11.0205 
311 29 0.804352 16.4832 9.55281 
312 29 0.163382 14.864 10.5364 
313 37 16.1543 12.9239 10.5232 
314 37 17.6783 13.8604 9.62839 
315 37 16.3869 14.8526 8.46737 
316 37 14.863 13.9161 9.36214 
317 37 16.0546 14.3863 11.8838 
318 37 17.5785 15.3228 10.9891 
319 37 16.2871 16.315 9.82803 
320 37 14.7632 15.3785 10.7228 
321 8 19.2255 17.2454 11.2811 
322 8 18.3285 17.8109 9.58535 
323 8 16.9786 16.3528 9.81329 
324 8 17.8756 15.7874 11.509 
325 8 18.0537 18.4922 12.3167 
326 8 17.1567 19.0576 10.6209 
327 8 15.8068 17.5996 10.8489 
328 8 16.7039 17.0342 12.5446 
329 43 6.95268 0.194222 13.4409 
330 43 6.40819 -0.378627 11.6037 
331 43 6.88566 1.4308 10.898 
332 43 7.43015 2.00365 12.7352 
333 43 8.81696 -0.436502 13.0851 
334 43 8.27248 -1.00935 11.2479 
335 43 8.74995 0.800078 10.5422 
336 43 9.29443 1.37293 12.3794 
337 21 12.8866 6.1845 14.5372 
338 21 12.1285 4.36997 14.1729 
339 21 10.3007 5.16584 14.0125 
340 21 11.0588 6.98037 14.3769 
341 21 13.1771 6.4567 12.5773 
342 21 12.419 4.64217 12.2129 
343 21 10.5912 5.43804 12.0525 
344 21 11.3493 7.25257 12.4169 
345 51 18.637 11.13 14.7358 
346 51 16.7633 11.425 15.3701 
347 51 17.0265 13.4025 15.2281 
348 51 18.9002 13.1075 14.5938 
349 51 17.9888 11.0804 12.8443 
350 51 16.1152 11.3754 13.4786 
351 51 16.3784 13.3529 13.3366 
352 51 18.2521 13.0579 12.7023 
353 23 0.975447 13.676 14.8417 
354 23 -0.124238 15.3116 14.5017 
355 23 1.546 16.3958 14.3152 
356 23 2.64568 14.7603 14.6552 
357 23 1.00725 13.2895 12.8797 
358 23 -0.0924323 14.9251 12.5397 
359 23 1.5778 16.0093 12.3532 
360 23 2.67749 14.3737 12.6932 
361 24 12.7691 16.5938 11.0017 
362 24 14.2394 15.399 10.3607 
363 24 14.4117 14.6259 12.1972 
364 24 12.9414 15.8206 12.8381 
365 24 11.4243 15.1885 10.5363 
366 24 12.8946 13.9937 9.89531 
367 24 13.0669 13.2206 11.7318 
368 24 11.5966 14.4153 12.3727 
369 19 13.1651 16.7631 11.4619 
370 19 12.147 17.1651 13.1357 
371 19 13.2318 15.8049 14.1222 
372 19 14.2499 15.403 12.4483 
373 19 14.5017 18.1732 11.9363 
374 19 13.4836 18.5752 13.6101 
375 19 14.5684 17.215 14.5966 
376 19 15.5865 16.813 12.9227 
377 47 8.63178 1.88607 13.2348 
378 47 9.62555 2.30332 14.9196 
379 47 9.14626 0.503436 15.6481 
380 47 8.15249 0.0861802 13.9633 
381 47 10.2999 1.12036 12.4405 
382 47 11.2937 1.53762 14.1252 
383 47 10.8144 -0.262271 14.8537 
384 47 9.82064 -0.679526 13.169 
385 6 1.93612 7.27413 16.8705 
386 6 1.84585 8.20776 15.1041 
387 6 2.13042 9.96395 16.0178 
388 6 2.22069 9.03032 17.7842 
389 6 3.91371 7.06404 16.6584 
390 6 3.82344 7.99767 14.892 
391 6 4.10801 9.75386 15.8057 
392 6 4.19829 8.82023 17.5721 
393 15 1.57539 9.78127 16.1641 
394 15 0.404725 9.89224 17.7819 
395 15 -1.20869 10.0127 16.6062 
396 15 -0.038026 9.90171 14.9884 
397 15 1.41273 7.78799 16.1831 
398 15 0.242069 7.89895 17.8009 
399 15 -1.37134 8.01939 16.6252 
400 15 -0.200682 7.90843 15.0074 
401 30 10.6569 15.3132 15.8647 
402 30 11.2396 17.0908 15.1574 
403 30 11.4873 16.2875 13.3426 
404 30 10.9047 14.5098 14.05 
405 30 8.75977 15.7542 15.4105 
406 30 9.34242 17.5319 14.7031 
407 30 9.59017 16.7285 12.8884 
408 30 9.00752 14.9509 13.5958 
409 20 8.92801 16.7891 12.5776 
410 20 8.65458 17.577 14.3954 
411 20 6.72992 17.9068 13.963 
412 20 7.00335 17.1188 12.1452 
413 20 8.45798 14.9807 13.2908 
414 20 8.18455 15.7686 15.1086 
415 20 6.25989 16.0983 14.6762 
416 20 6.53332 15.3104 12.8584 
417 41 10.0606 2.43166 16.0222 
418 41 11.9306 2.67065 16.6898 
419 41 11.3823 1.96401 18.4787 
420 41 9.51226 1.72502 17.8111 
421 41 10.5102 0.575978 15.427 
422 41 12.3803 0.814969 16.0946 
423 41 11.832 0.108333 17.8835 
424 41 9.96189 -0.130658 17.2159 
425 14 -1.18021 0.322015 16.7024 
426 14 -0.220766 0.69165 14.9869 
427 14 0.941596 2.02251 15.9238 
428 14 -0.0178511 1.65288 17.6393 
429 14 0.134464 -1.12442 17.126 
430 14 1.09391 -0.754783 15.4106 
431 14 2.25627 0.576082 16.3474 
432 14 1.29683 0.206446 18.0629 
