ITEM: TIMESTEP
4000
ITEM: NUMBER OF ENTRIES
432
ITEM: BOX BOUNDS pp pp pp
0 18
0 18
0 18
ITEM: ENTRIES index c_1[1] c_1[2] c_1[3] c_1[4] 
1 40 15.6638 2.12768 2.37458 
2 40 14.8004 3.34631 3.70479 
3 40 13.0631 3.182 2.72766 
4 40 13.9265 1.96337 1.39745 
5 40 15.1777 0.550356 3.50408 
6 40 14.3143 1.76899 4.83428 
7 40 12.577 1.60468 3.85715 
8 40 13.4404 0.386053 2.52694 
9 49 2.05558 8.58941 2.68122 
10 49 1.22866 7.05733 3.66556 
11 49 -0.0646303 8.3125 4.53272 
12 49 0.762291 9.84458 3.54838 
13 49 0.773541 8.31143 1.17155 
14 49 -0.0533803 6.77935 2.15589 
15 49 -1.34667 8.03452 3.02305 
16 49 -0.519745 9.5666 2.03871 
17 52 12.7347 10.4444 2.01223 
18 52 13.3175 8.54874 1.75356 
19 52 12.1882 7.98967 3.30666 
20 52 11.6055 9.88533 3.56533 
21 52 11.1904 10.1379 0.778959 
22 52 11.7731 8.24229 0.520288 
23 52 10.6438 7.68322 2.07339 
24 52 10.0611 9.57888 2.33206 
25 48 14.885 12.4104 0.735072 
26 48 15.9358 11.1089 1.83141 
27 48 14.2378 10.3926 2.60843 
28 48 13.187 11.6941 1.51209 
29 48 14.772 11.0714 -0.746242 
30 48 15.8228 9.76992 0.350093 
31 48 14.1249 9.05358 1.12711 
32 48 13.0741 10.3551 0.0307771 
33 8 3.7493 14.2216 16.233 
34 8 4.09108 13.7863 18.1549 
35 8 2.16256 14.1133 18.5719 
36 8 1.82079 14.5486 16.65 
37 8 3.34432 12.2971 15.8691 
38 8 3.68609 11.8618 17.791 
39 8 1.75758 12.1888 18.208 
40 8 1.4158 12.6241 16.2861 
41 33 4.64981 16.537 17.9935 
42 33 5.98193 15.3912 18.9487 
43 33 4.74424 13.8273 18.7988 
44 33 3.41212 14.9732 17.8436 
45 33 5.48264 16.0458 16.2428 
46 33 6.81475 14.8999 17.198 
47 33 5.57706 13.3361 17.0481 
48 33 4.24495 14.4819 16.0929 
49 39 10.7364 10.5031 0.609039 
50 39 10.9857 10.8328 2.56587 
51 39 9.85016 12.4739 2.43407 
52 39 9.60087 12.1442 0.47724 
53 39 9.10901 9.40853 1.00076 
54 39 9.3583 9.73818 2.95759 
55 39 8.22277 11.3793 2.82579 
56 39 7.97347 11.0496 0.868963 
57 18 1.45719 15.0871 16.9183 
58 18 1.38337 13.3701 17.9412 
59 18 -0.54621 13.6981 18.3525 
60 18 -0.472397 15.4151 17.3295 
61 18 0.936361 14.1153 15.2496 
62 18 0.862549 12.3983 16.2726 
63 18 -1.06703 12.7263 16.6838 
64 18 -0.993223 14.4433 15.6609 
65 14 -0.646768 3.25837 1.06449 
66 14 0.680548 3.99775 -0.2361 
67 14 1.36715 5.24145 1.17165 
68 14 0.0398376 4.50207 2.47225 
69 14 0.682444 1.8776 1.63606 
70 14 2.00976 2.61698 0.335462 
71 14 2.69637 3.86069 1.74322 
72 14 1.36905 3.1213 3.04381 
73 46 15.1886 3.28082 7.3392 
74 46 16.2484 3.94512 5.77853 
75 46 16.9599 2.10053 5.47654 
76 46 15.9002 1.43623 7.03721 
77 46 13.6489 2.88559 6.12548 
78 46 14.7087 3.54989 4.56481 
79 46 15.4202 1.7053 4.26282 
80 46 14.3605 1.04101 5.82349 
81 19 1.05716 11.6644 0.349935 
82 19 1.10407 12.4527 2.18741 
83 19 1.24662 10.6181 2.97089 
84 19 1.19972 9.82977 1.13342 
85 19 3.05152 11.777 0.250716 
86 19 3.09843 12.5653 2.08819 
87 19 3.24099 10.7307 2.87167 
88 19 3.19408 9.94237 1.0342 
89 11 16.8196 10.3 5.74671 
90 11 16.373 11.0675 3.95466 
91 11 17.6619 9.80443 3.09246 
92 11 18.1086 9.03693 4.88451 
93 11 15.3571 8.95248 5.53415 
94 11 14.9104 9.71998 3.7421 
95 11 16.1994 8.45695 2.87991 
96 11 16.646 7.68945 4.67195 
97 13 13.5188 12.1605 2.57093 
98 13 15.2006 11.079 2.61483 
99 13 15.648 11.8475 4.40624 
100 13 13.9662 12.929 4.36234 
101 13 12.5332 10.6639 3.45915 
102 13 14.2151 9.5824 3.50305 
103 13 14.6625 10.3509 5.29446 
104 13 12.9807 11.4324 5.25056 
105 7 15.1955 12.5238 3.74689 
106 7 16.1685 13.944 2.72894 
107 7 17.8019 13.6187 3.83628 
108 7 16.8289 12.1985 4.85423 
109 7 15.8163 11.1537 2.42872 
110 7 16.7893 12.574 1.41077 
111 7 18.4226 12.2487 2.51811 
112 7 17.4497 10.8284 3.53607 
113 12 14.3394 13.9701 0.872914 
114 12 16.0029 13.5809 1.91284 
115 12 15.361 14.7724 3.3854 
116 12 13.6975 15.1616 2.34548 
117 12 13.4333 12.4116 1.739 
118 12 15.0968 12.0224 2.77893 
119 12 14.455 13.2139 4.25149 
120 12 12.7915 13.6031 3.21157 
121 53 2.81806 16.9436 -1.02596 
122 53 3.77958 15.8606 0.353365 
123 53 2.92644 16.9461 1.80039 
124 53 1.96492 18.0291 0.421068 
125 53 1.28587 15.6596 -0.966092 
126 53 2.24739 14.5766 0.413231 
127 53 1.39424 15.662 1.86026 
128 53 0.432721 16.7451 0.480934 
129 38 12.4159 16.185 2.92483 
130 38 11.6409 16.3893 4.7572 
131 38 13.4831 16.3946 5.5358 
132 38 14.2582 16.1903 3.70343 
133 38 12.4906 18.1745 2.73456 
134 38 11.7155 18.3788 4.56693 
135 38 13.5577 18.3842 5.34553 
136 38 14.3328 18.1799 3.51316 
137 54 15.0453 18.7788 4.609 
138 54 16.9675 18.3745 4.98554 
139 54 16.4176 16.8437 6.14925 
140 54 14.4954 17.248 5.77271 
141 54 15.0983 17.5568 3.0266 
142 54 17.0205 17.1525 3.40314 
143 54 16.4705 15.6217 4.56685 
144 54 14.5483 16.026 4.19031 
145 5 2.36546 9.07578 4.94675 
146 5 3.3451 8.57762 6.61773 
147 5 4.29063 10.3398 6.58872 
148 5 3.31099 10.8379 4.91775 
149 5 0.900441 9.87996 6.0454 
150 5 1.88008 9.38181 7.71637 
151 5 2.82561 11.1439 7.68736 
152 5 1.84597 11.6421 6.01639 
153 4 12.9605 10.3856 6.55723 
154 4 13.9086 9.33073 5.14717 
155 4 12.6482 7.80582 5.44053 
156 4 11.7001 8.86073 6.85059 
157 4 11.7307 11.1352 5.16954 
158 4 12.6788 10.0803 3.75948 
159 4 11.4184 8.55537 4.05284 
160 4 10.4703 9.61027 5.4629 
161 10 10.3416 11.8793 7.60598 
162 10 11.5397 11.0298 6.24851 
163 10 10.3129 9.45311 6.15245 
164 10 9.11479 10.3027 7.50992 
165 10 9.31226 12.7695 6.14035 
166 10 10.5104 11.92 4.78288 
167 10 9.28361 10.3433 4.68683 
168 10 8.08547 11.1929 6.0443 
169 17 13.0485 12.9115 8.12398 
170 17 11.8247 11.3325 8.02864 
171 17 10.3031 12.5404 7.55349 
172 17 11.5269 14.1194 7.64883 
173 17 13.4812 12.6933 6.18358 
174 17 12.2574 11.1143 6.08824 
175 17 10.7359 12.3222 5.61309 
176 17 11.9597 13.9012 5.70844 
177 16 10.6843 15.544 4.01131 
178 16 10.5013 17.0853 5.27255 
179 16 8.93151 17.7531 4.22865 
180 16 9.11452 16.2118 2.96741 
181 16 9.4587 14.4585 5.16002 
182 16 9.27569 15.9998 6.42126 
183 16 7.70587 16.6676 5.37737 
184 16 7.88888 15.1263 4.11612 
185 3 14.2015 14.4407 8.84938 
186 3 12.9498 13.7838 7.43448 
187 3 11.9219 15.4956 7.54905 
188 3 13.1735 16.1525 8.96395 
189 3 15.3748 15.2396 7.44051 
190 3 14.1232 14.5827 6.0256 
191 3 13.0953 16.2945 6.14018 
192 3 14.3469 16.9514 7.55508 
193 21 1.34031 -1.19452 1.63351 
194 21 -0.653805 -1.04572 1.59656 
195 21 -0.615566 -0.096308 3.35644 
196 21 1.37855 -0.245113 3.39338 
197 21 1.48879 0.55947 0.684049 
198 21 -0.505328 0.708274 0.647102 
199 21 -0.467088 1.65768 2.40698 
200 21 1.52703 1.50888 2.44392 
201 23 3.56492 14.8687 4.89033 
202 23 4.94374 13.4376 4.66466 
203 23 5.33027 14.1012 2.81799 
204 23 3.95144 15.5323 3.04366 
205 23 4.96114 16.0982 5.62441 
206 23 6.33997 14.6671 5.39874 
207 23 6.72649 15.3307 3.55207 
208 23 5.34766 16.7618 3.77774 
209 2 1.6227 0.962052 6.45388 
210 2 3.16004 2.19792 6.1234 
211 2 4.24186 1.2178 7.49052 
212 2 2.70452 -0.0180696 7.821 
213 2 2.30554 -0.267575 5.032 
214 2 3.84288 0.968296 4.70151 
215 2 4.9247 -0.0118258 6.06864 
216 2 3.38736 -1.2477 6.39912 
217 29 19.487 -0.161647 6.59437 
218 29 19.1008 1.72507 6.05484 
219 29 17.9115 1.06259 4.58965 
220 29 18.2978 -0.824122 5.12918 
221 29 17.9261 -0.123818 7.84422 
222 29 17.5399 1.7629 7.3047 
223 29 16.3506 1.10042 5.83951 
224 29 16.7369 -0.786293 6.37903 
225 6 6.99783 9.48402 8.90246 
226 6 7.24465 7.52199 9.20166 
227 6 5.60878 7.49159 10.3519 
228 6 5.36195 9.45362 10.0527 
229 6 5.874 9.09735 7.29389 
230 6 6.12083 7.13532 7.59309 
231 6 4.48495 7.10492 8.7433 
232 6 4.23813 9.06695 8.44411 
233 26 11.1212 11.4073 8.75348 
234 26 12.489 10.6817 7.48757 
235 26 12.8084 9.1375 8.7178 
236 26 11.4406 9.86313 9.9837 
237 26 9.69746 10.3638 7.81325 
238 26 11.0653 9.63819 6.54734 
239 26 11.3846 8.09399 7.77757 
240 26 10.0168 8.81962 9.04347 
241 27 15.4209 9.11903 7.29186 
242 27 14.6268 7.3058 7.0062 
243 27 13.2639 7.67971 8.42139 
244 27 14.058 9.49294 8.70706 
245 27 14.1913 9.87559 5.9078 
246 27 13.3972 8.06236 5.62214 
247 27 12.0343 8.43627 7.03733 
248 27 12.8284 10.2495 7.32299 
249 28 15.6059 11.0531 8.36925 
250 28 16.6913 11.0313 6.68953 
251 28 15.1505 10.2217 5.70443 
252 28 14.0651 10.2435 7.38416 
253 28 14.9367 12.8818 7.91307 
254 28 16.0221 12.8599 6.23334 
255 28 14.4813 12.0503 5.24825 
256 28 13.3959 12.0722 6.92797 
257 31 3.34532 13.3832 4.40349 
258 31 2.91206 11.5726 5.1342 
259 31 3.71182 12.0908 6.89255 
260 31 4.14509 13.9015 6.16184 
261 31 1.56413 14.0563 5.01525 
262 31 1.13086 12.2457 5.74596 
263 31 1.93062 12.764 7.50431 
264 31 2.36389 14.5746 6.7736 
265 35 18.5734 12.5376 7.55269 
266 35 17.0271 11.7339 6.57142 
267 35 15.9492 11.7509 8.25601 
268 35 17.4955 12.5547 9.23728 
269 35 17.9048 14.3689 7.1063 
270 35 16.3585 13.5652 6.12503 
271 35 15.2806 13.5822 7.80962 
272 35 16.8269 14.386 8.79089 
273 22 4.88739 2.36807 9.48479 
274 22 3.14778 3.09291 10.1544 
275 22 4.05376 4.80396 10.6559 
276 22 5.79337 4.07912 9.98629 
277 22 4.49627 3.10759 7.66817 
278 22 2.75667 3.83243 8.33777 
279 22 3.66264 5.54349 8.83927 
280 22 5.40225 4.81865 8.16966 
281 30 4.28527 12.4575 7.73189 
282 30 4.18428 11.0698 6.29525 
283 30 4.95875 12.3685 4.98625 
284 30 5.05974 13.7563 6.42289 
285 30 6.12647 11.8351 8.20369 
286 30 6.02548 10.4473 6.76705 
287 30 6.79994 11.7461 5.45805 
288 30 6.90093 13.1338 6.89469 
289 36 0.385459 17.166 9.35484 
290 36 1.1359 15.3124 9.32325 
291 36 -0.440112 14.6924 8.25934 
292 36 -1.19055 16.546 8.29093 
293 36 1.3617 17.5901 7.66158 
294 36 2.11213 15.7365 7.62999 
295 36 0.536126 15.1165 6.56609 
296 36 -0.214312 16.9701 6.59768 
297 24 14.5489 -0.0969067 11.2325 
298 24 16.193 -0.973265 10.5052 
299 24 16.7692 0.76856 9.70888 
300 24 15.1251 1.64492 10.4362 
301 24 15.5313 0.348113 12.9168 
302 24 17.1753 -0.528245 12.1895 
303 24 17.7515 1.21358 11.3932 
304 24 16.1075 2.08994 12.1205 
305 25 3.19856 0.518285 11.829 
306 25 1.22549 0.412907 11.5193 
307 25 1.01262 2.26416 12.2457 
308 25 2.98569 2.36954 12.5553 
309 25 3.44693 1.26779 9.99148 
310 25 1.47387 1.16241 9.6818 
311 25 1.261 3.01366 10.4081 
312 25 3.23406 3.11904 10.7178 
313 43 15.165 4.60367 13.1596 
314 43 13.8835 3.09796 12.8583 
315 43 13.6037 3.71275 10.9758 
316 43 14.8851 5.21845 11.2771 
317 43 16.6748 3.43967 12.555 
318 43 15.3933 1.93396 12.2537 
319 43 15.1135 2.54875 10.3713 
320 43 16.3949 4.05446 10.6725 
321 32 5.57724 14.3627 9.84306 
322 32 4.56858 13.5232 8.33381 
323 32 3.77661 12.1949 9.60199 
324 32 4.78528 13.0344 11.1112 
325 32 4.04252 15.5999 10.1806 
326 32 3.03386 14.7604 8.67131 
327 32 2.24189 13.4321 9.93949 
328 32 3.25055 14.2716 11.4487 
329 45 6.06487 3.90996 9.38249 
330 45 7.94143 4.45011 8.95034 
331 45 8.36104 2.56794 8.41989 
332 45 6.48447 2.0278 8.85203 
333 45 5.51492 4.31701 7.50316 
334 45 7.39149 4.85716 7.07102 
335 45 7.81109 2.97499 6.54056 
336 45 5.93453 2.43485 6.97271 
337 37 14.3324 15.0623 9.20968 
338 37 16.1116 14.9015 8.31041 
339 37 16.0019 16.8184 7.75045 
340 37 14.2227 16.9792 8.64971 
341 37 15.2394 15.6098 10.9061 
342 37 17.0185 15.449 10.0068 
343 37 16.9088 17.3658 9.44684 
344 37 15.1296 17.5267 10.3461 
345 42 11.8458 -0.282339 13.5656 
346 42 11.6638 0.890487 11.9558 
347 42 10.1252 1.83412 12.8173 
348 42 10.3071 0.661299 14.427 
349 42 13.1105 1.03449 14.382 
350 42 12.9285 2.20731 12.7722 
351 42 11.3898 3.15095 13.6337 
352 42 11.5718 1.97812 15.2434 
353 9 5.25416 4.08843 12.6676 
354 9 3.86393 4.2477 14.0966 
355 9 2.80833 5.48419 12.9318 
356 9 4.19855 5.32492 11.5028 
357 9 4.27796 2.52455 11.8922 
358 9 2.88773 2.68382 13.3211 
359 9 1.83212 3.92031 12.1563 
360 9 3.22235 3.76104 10.7274 
361 47 15.3331 5.4991 12.9284 
362 47 13.3662 5.38097 13.2711 
363 47 13.717 4.28376 14.9061 
364 47 15.6838 4.40189 14.5634 
365 47 15.4245 7.16708 14.0282 
366 47 13.4576 7.04896 14.3709 
367 47 13.8084 5.95175 16.0059 
368 47 15.7753 6.06988 15.6632 
369 34 7.34386 8.99892 11.8183 
370 34 6.14298 9.32707 13.3837 
371 34 7.66055 8.94297 14.6284 
372 34 8.86143 8.61483 13.0631 
373 34 7.8487 10.9341 11.8 
374 34 6.64782 11.2622 13.3653 
375 34 8.16539 10.8781 14.6101 
376 34 9.36627 10.55 13.0448 
377 50 13.8442 10.1542 12.5081 
378 50 12.6695 9.06482 13.7054 
379 50 11.151 10.3188 13.3566 
380 50 12.3256 11.4082 12.1593 
381 50 13.2834 9.04029 10.9445 
382 50 12.1088 7.95091 12.1418 
383 50 10.5903 9.2049 11.793 
384 50 11.7649 10.2943 10.5957 
385 15 15.988 17.4966 12.8503 
386 15 15.9161 18.1713 14.7317 
387 15 15.9763 16.2903 15.4086 
388 15 16.0482 15.6156 13.5272 
389 15 17.9858 17.5775 12.8976 
390 15 17.9139 18.2523 14.779 
391 15 17.9741 16.3712 15.4559 
392 15 18.046 15.6965 13.5745 
393 20 16.5054 2.09639 13.2418 
394 20 16.6899 3.63812 14.5023 
395 20 14.736 4.02293 14.3177 
396 20 14.5515 2.48119 13.0572 
397 20 16.1206 0.881904 14.7835 
398 20 16.3051 2.42364 16.044 
399 20 14.3512 2.80845 15.8594 
400 20 14.1666 1.26671 14.5989 
401 51 9.30143 8.12735 14.348 
402 51 10.6395 8.3575 15.8165 
403 51 11.6431 6.76007 15.1524 
404 51 10.305 6.52993 13.6839 
405 51 10.3979 9.30857 13.1638 
406 51 11.736 9.53871 14.6323 
407 51 12.7396 7.94129 13.9681 
408 51 11.4015 7.71114 12.4996 
409 41 12.7283 4.47539 14.3708 
410 41 11.083 3.91105 15.358 
411 41 12.1902 3.51127 16.9749 
412 41 13.8355 4.07561 15.9877 
413 41 12.4694 6.35201 15.0122 
414 41 10.8241 5.78767 15.9993 
415 41 11.9313 5.38788 17.6162 
416 41 13.5766 5.95223 16.629 
417 44 1.39319 10.6128 15.9834 
418 44 1.43999 8.6137 16.0186 
419 44 -0.556808 8.56516 15.9164 
420 44 -0.60361 10.5643 15.8813 
421 44 1.49611 10.5802 13.9864 
422 44 1.54292 8.58102 14.0215 
423 44 -0.453885 8.53248 13.9194 
424 44 -0.500688 10.5316 13.8842 
425 1 9.81039 10.6672 17.3559 
426 1 10.9233 11.3144 15.8254 
427 1 11.8301 12.6215 17.0375 
428 1 10.7173 11.9742 18.568 
429 1 11.2029 9.29871 17.7897 
430 1 12.3158 9.94596 16.2591 
431 1 13.2227 11.253 17.4713 
432 1 12.1098 10.6057 19.0018 
