ITEM: TIMESTEP
7000
ITEM: NUMBER OF ENTRIES
432
ITEM: BOX BOUNDS pp pp pp
0 18
0 18
0 18
ITEM: ENTRIES index c_1[1] c_1[2] c_1[3] c_1[4] 
1 1 9.74323 0.45926 1.83996 
2 1 8.79706 -1.27614 2.14517 
3 1 8.83689 -0.950856 4.11814 
4 1 9.78306 0.784543 3.81293 
5 1 7.98165 1.39872 1.72063 
6 1 7.03548 -0.336681 2.02584 
7 1 7.0753 -0.0113983 3.99881 
8 1 8.02147 1.724 3.69359 
9 14 10.5929 8.63972 -0.577406 
10 14 12.5603 8.95836 -0.745079 
11 14 12.2165 10.8975 -1.09395 
12 14 10.2491 10.5788 -0.926277 
13 14 10.6999 9.01172 1.38478 
14 14 12.6673 9.33035 1.21711 
15 14 12.3235 11.2694 0.868235 
16 14 10.3561 10.9508 1.03591 
17 48 12.3897 12.4429 2.7174 
18 48 14.3292 12.441 3.20594 
19 48 13.9945 10.9786 4.52862 
20 48 12.0551 10.9806 4.04009 
21 48 12.7456 11.0786 1.29901 
22 48 14.6851 11.0766 1.78755 
23 48 14.3504 9.61423 3.11023 
24 48 12.411 9.6162 2.62169 
25 30 8.50447 14.258 16.3515 
26 30 9.57028 14.1153 18.0378 
27 30 11.243 13.9011 16.9625 
28 30 10.1771 14.0438 15.2761 
29 30 8.76178 16.2414 16.3567 
30 30 9.8276 16.0986 18.043 
31 30 11.5003 15.8845 16.9677 
32 30 10.4345 16.0272 15.2814 
33 45 8.5152 13.6431 0.260583 
34 45 9.09307 12.8193 1.98899 
35 45 9.94747 14.5459 2.52631 
36 45 9.3696 15.3697 0.797908 
37 45 6.8017 14.2262 1.1114 
38 45 7.37957 13.4024 2.83981 
39 45 8.23397 15.129 3.37713 
40 45 7.6561 15.9529 1.64873 
41 12 11.5368 12.7058 2.54797 
42 12 13.0655 13.9941 2.6073 
43 12 12.0083 15.1933 3.80912 
44 12 10.4796 13.905 3.74979 
45 12 12.2754 11.7559 4.1455 
46 12 13.8041 13.0442 4.20483 
47 12 12.7469 14.2433 5.40665 
48 12 11.2182 12.955 5.34732 
49 7 13.8082 13.7568 4.96307 
50 7 13.073 14.6895 3.35393 
51 7 14.4842 16.0964 3.52466 
52 7 15.2194 15.1637 5.13381 
53 7 15.0198 12.6841 3.7877 
54 7 14.2845 13.6169 2.17855 
55 7 15.6957 15.0238 2.34929 
56 7 16.431 14.091 3.95843 
57 39 10.0358 1.42972 4.70751 
58 39 8.16248 0.775096 4.95657 
59 39 8.83274 -1.10685 5.05161 
60 39 10.7061 -0.45222 4.80255 
61 39 10.2391 1.60221 6.68967 
62 39 8.36572 0.947586 6.93872 
63 39 9.03599 -0.934357 7.03376 
64 39 10.9093 -0.27973 6.78471 
65 52 8.47774 1.9123 3.9586 
66 52 7.62216 3.66842 4.3876 
67 52 7.21906 3.02041 6.23628 
68 52 8.07463 1.2643 5.80728 
69 52 10.24 2.61667 4.58976 
70 52 9.3844 4.37279 5.01876 
71 52 8.9813 3.72479 6.86743 
72 52 9.83687 1.96867 6.43843 
73 13 12.3076 11.7348 4.73231 
74 13 14.2343 11.9966 4.26425 
75 13 14.2706 13.6744 5.35227 
76 13 12.3439 13.4125 5.82033 
77 13 12.8427 10.6781 6.34387 
78 13 14.7694 10.94 5.87581 
79 13 14.8057 12.6177 6.96383 
80 13 12.879 12.3559 7.43189 
81 11 0.485266 12.3584 4.85247 
82 11 -0.376818 13.9661 4.03258 
83 11 0.136613 15.0556 5.62921 
84 11 0.998697 13.448 6.4491 
85 11 2.21535 12.8361 3.9701 
86 11 1.35327 14.4438 3.15022 
87 11 1.8667 15.5334 4.74685 
88 11 2.72878 13.9257 5.56673 
89 49 6.72851 13.687 3.6882 
90 49 6.03858 14.6076 5.3242 
91 49 5.26373 16.0556 4.18267 
92 49 5.95367 15.135 2.54667 
93 49 5.01866 12.6594 3.54537 
94 49 4.32872 13.58 5.18137 
95 49 3.55388 15.0279 4.03983 
96 49 4.24382 14.1073 2.40383 
97 31 6.70165 14.6039 4.11661 
98 31 8.41136 15.6353 4.23133 
99 31 7.41554 17.3281 3.85349 
100 31 5.70583 16.2967 3.73877 
101 31 6.4097 14.8698 6.07724 
102 31 8.11941 15.9011 6.19196 
103 31 7.12359 17.5939 5.81412 
104 31 5.41388 16.5626 5.6994 
105 40 17.8141 17.566 5.28224 
106 40 16.5822 18.8967 6.12577 
107 40 15.1326 18.3589 4.85713 
108 40 16.3645 17.0282 4.0136 
109 40 17.1969 16.1732 6.578 
110 40 15.9649 17.5039 7.42154 
111 40 14.5153 16.9661 6.1529 
112 40 15.7473 15.6354 5.30936 
113 22 14.8828 2.5293 7.1106 
114 22 14.8285 4.29903 8.04071 
115 22 16.3967 4.91385 6.9624 
116 22 16.451 3.14412 6.03229 
117 22 13.6427 3.22933 5.70627 
118 22 13.5884 4.99906 6.63639 
119 22 15.1566 5.61389 5.55808 
120 22 15.2109 3.84416 4.62796 
121 4 15.1566 8.9467 8.07631 
122 4 14.8415 8.86419 6.10301 
123 4 15.4914 6.9729 6.07831 
124 4 15.8065 7.05541 8.0516 
125 4 13.2916 8.30156 8.40111 
126 4 12.9764 8.21905 6.42781 
127 4 13.6264 6.32776 6.40311 
128 4 13.9415 6.41026 8.3764 
129 27 17.3155 9.75667 6.70663 
130 27 17.8048 7.96605 5.96213 
131 27 18.3337 7.35055 7.79009 
132 27 17.8444 9.14117 8.53459 
133 27 15.4498 9.11259 7.02957 
134 27 15.9391 7.32197 6.28508 
135 27 16.468 6.70647 8.11303 
136 27 15.9787 8.49709 8.85753 
137 28 17.9811 10.1661 8.52633 
138 28 18.1277 11.6932 7.2432 
139 28 16.4031 11.1439 6.39238 
140 28 16.2565 9.61675 7.6755 
141 28 16.9791 11.3349 9.80292 
142 28 17.1257 12.862 8.51979 
143 28 15.401 12.3127 7.66897 
144 28 15.2544 10.7856 8.9521 
145 5 11.1315 14.3544 4.56833 
146 5 10.7156 16.2046 3.93305 
147 5 8.80532 15.9605 4.47271 
148 5 9.22127 14.1103 5.108 
149 5 11.5533 15.0734 6.38634 
150 5 11.1373 16.9237 5.75106 
151 5 9.22703 16.6795 6.29073 
152 5 9.64298 14.8293 6.92601 
153 54 17.0574 16.3545 7.34608 
154 54 18.9346 15.8901 7.85659 
155 54 18.2454 14.7088 9.31588 
156 54 16.3683 15.1732 8.80537 
157 54 17.0201 14.809 6.07728 
158 54 18.8972 14.3445 6.58779 
159 54 18.2081 13.1632 8.04709 
160 54 16.3309 13.6276 7.53658 
161 29 3.51178 15.301 8.80491 
162 29 3.26599 17.2858 8.79119 
163 29 1.60331 17.0723 7.70035 
164 29 1.8491 15.0876 7.71406 
165 29 2.42777 15.1783 10.4812 
166 29 2.18197 17.1631 10.4675 
167 29 0.519293 16.9497 9.37661 
168 29 0.765089 14.9649 9.39033 
169 2 5.34467 15.4662 8.30196 
170 2 6.59871 16.9606 8.7425 
171 2 7.25023 16.9713 6.85162 
172 2 5.99619 15.4769 6.41109 
173 2 3.92943 16.7953 7.82183 
174 2 5.18347 18.2897 8.26237 
175 2 5.83499 18.3004 6.37149 
176 2 4.58095 16.806 5.93096 
177 16 8.91401 2.16182 9.1328 
178 16 6.9642 2.38701 9.5169 
179 16 6.52331 1.65135 7.71013 
180 16 8.47312 1.42616 7.32603 
181 16 8.85186 0.315722 9.89965 
182 16 6.90205 0.540911 10.2837 
183 16 6.46116 -0.194754 8.47697 
184 16 8.41097 -0.419944 8.09288 
185 38 14.0705 14.0655 6.53305 
186 38 13.822 15.0803 8.23844 
187 38 15.7056 14.66 8.76301 
188 38 15.9541 13.6451 7.05762 
189 38 14.6951 15.7368 5.62946 
190 38 14.4466 16.7517 7.33485 
191 38 16.3303 16.3313 7.85943 
192 38 16.5787 15.3165 6.15404 
193 25 3.63455 3.53831 8.60834 
194 25 2.09236 2.43811 9.2496 
195 25 0.820304 3.81595 8.55431 
196 25 2.36249 4.91615 7.91305 
197 25 3.57526 2.59432 6.84614 
198 25 2.03307 1.49412 7.48739 
199 25 0.761009 2.87196 6.7921 
200 25 2.3032 3.97216 6.15085 
201 46 16.5927 0.481219 9.99051 
202 46 17.3257 1.69905 8.5835 
203 46 18.7357 0.348777 8.14932 
204 46 18.0028 -0.869052 9.55633 
205 46 15.3784 -0.351642 8.63706 
206 46 16.1114 0.866188 7.23005 
207 46 17.5214 -0.484084 6.79587 
208 46 16.7885 -1.70191 8.20288 
209 10 14.1287 8.45018 10.7862 
210 10 13.7353 8.36111 8.82732 
211 10 13.9516 6.37339 8.87428 
212 10 14.3449 6.46246 10.8332 
213 10 12.1797 8.24762 11.1868 
214 10 11.7864 8.15855 9.22786 
215 10 12.0026 6.17083 9.27482 
216 10 12.3959 6.2599 11.2337 
217 26 15.7854 8.0632 11.4563 
218 26 15.3392 8.70475 9.61528 
219 26 17.0845 7.99455 8.94484 
220 26 17.5307 7.353 10.7859 
221 26 14.9166 6.30706 11.0549 
222 26 14.4704 6.94861 9.21385 
223 26 16.2157 6.23841 8.54342 
224 26 16.6619 5.59686 10.3844 
225 17 15.1054 11.1965 9.77456 
226 17 15.4353 9.2256 9.69171 
227 17 13.9639 8.92379 11.0123 
228 17 13.634 10.8946 11.0952 
229 17 13.7915 11.0396 8.27485 
230 17 14.1214 9.06871 8.192 
231 17 12.65 8.7669 9.5126 
232 17 12.3201 10.7378 9.59545 
233 35 2.25778 12.5394 8.19026 
234 35 0.405735 12.1482 7.54459 
235 35 0.319979 10.5578 8.75421 
236 35 2.17203 10.949 9.39988 
237 35 1.50774 13.6873 9.64626 
238 35 -0.344309 13.2961 9.0006 
239 35 -0.430065 11.7056 10.2102 
240 35 1.42198 12.0968 10.8559 
241 32 7.40343 14.0279 9.56428 
242 32 6.97225 13.0988 7.84645 
243 32 8.86432 13.336 7.24326 
244 32 9.29549 14.2651 8.9611 
245 32 7.88735 12.2727 10.3921 
246 32 7.45618 11.3437 8.67422 
247 32 9.34824 11.5809 8.07103 
248 32 9.77942 12.5099 9.78887 
249 36 3.35356 14.1387 11.7848 
250 36 3.96943 12.3442 11.152 
251 36 2.11991 11.9359 10.5097 
252 36 1.50404 13.7305 11.1424 
253 36 3.80076 14.9217 9.99959 
254 36 4.41663 13.1271 9.36681 
255 36 2.56712 12.7189 8.72445 
256 36 1.95125 14.5134 9.35723 
257 3 15.796 12.5815 10.3064 
258 3 14.8841 11.6798 8.77166 
259 3 13.1898 12.6482 9.20935 
260 3 14.1017 13.5499 10.7441 
261 3 16.3418 14.0812 9.10098 
262 3 15.4299 13.1795 7.56625 
263 3 13.7357 14.1479 8.00394 
264 3 14.6475 15.0496 9.53867 
265 9 15.3728 2.98598 9.55188 
266 9 16.36 4.174 10.8224 
267 9 18.0993 3.51056 10.0913 
268 9 17.1122 2.32253 8.82078 
269 9 15.36 4.45173 8.19122 
270 9 16.3472 5.63976 9.46169 
271 9 18.0865 4.97631 8.7306 
272 9 17.0993 3.78829 7.46012 
273 37 15.8749 13.2346 10.6839 
274 37 17.172 13.9561 9.3434 
275 37 15.9608 15.512 9.00868 
276 37 14.6636 14.7905 10.3492 
277 37 16.797 14.2636 12.1299 
278 37 18.0941 14.985 10.7894 
279 37 16.8828 16.5409 10.4547 
280 37 15.5857 15.8195 11.7952 
281 53 16.6865 2.05388 9.2658 
282 53 18.5531 1.75244 9.91791 
283 53 18.2651 3.1018 11.3658 
284 53 16.3986 3.40324 10.7137 
285 53 16.0284 0.608761 10.4817 
286 53 17.8949 0.30732 11.1338 
287 53 17.6069 1.65667 12.5817 
288 53 15.7404 1.95811 11.9296 
289 33 1.32941 2.37391 9.49522 
290 33 0.76912 2.91544 11.3372 
291 33 0.322542 1.01252 11.7608 
292 33 0.882831 0.470985 9.91884 
293 33 3.19667 2.08129 10.1492 
294 33 2.63638 2.62283 11.9912 
295 33 2.1898 0.719903 12.4148 
296 33 2.75009 0.178369 10.5729 
297 42 4.49616 2.77214 11.3319 
298 42 4.79987 4.66443 10.7601 
299 42 3.4079 4.45835 9.33883 
300 42 3.10419 2.56606 9.91067 
301 42 3.09253 3.38596 12.6176 
302 42 3.39624 5.27825 12.0458 
303 42 2.00428 5.07217 10.6245 
304 42 1.70056 3.17988 11.1964 
305 43 9.92426 1.52336 13.6619 
306 43 9.64758 -0.107594 12.5378 
307 43 11.1846 0.431544 11.3772 
308 43 11.4612 2.0625 12.5012 
309 43 11.1737 0.498998 14.8406 
310 43 10.897 -1.13196 13.7166 
311 43 12.434 -0.592819 12.556 
312 43 12.7107 1.03814 13.68 
313 50 -0.642312 5.14717 12.5916 
314 50 -0.432611 6.60227 13.9476 
315 50 1.49113 6.80022 13.4377 
316 50 1.28143 5.34512 12.0817 
317 50 -1.14752 6.50492 11.2128 
318 50 -0.937822 7.96002 12.5687 
319 50 0.985921 8.15798 12.0588 
320 50 0.77622 6.70288 10.7028 
321 6 12.724 10.2391 12.3713 
322 6 14.4164 10.5543 13.3893 
323 6 13.7392 9.39728 14.8734 
324 6 12.0468 9.08208 13.8554 
325 6 13.5468 8.6385 11.4989 
326 6 15.2393 8.95371 12.5169 
327 6 14.5621 7.79668 14.001 
328 6 12.8696 7.48147 12.983 
329 15 13.1684 9.87224 14.6003 
330 15 12.3456 11.4729 15.4726 
331 15 14.1555 12.3045 15.6537 
332 15 14.9783 10.7038 14.7814 
333 15 12.9506 10.7362 12.8097 
334 15 12.1279 12.3368 13.682 
335 15 13.9377 13.1684 13.8631 
336 15 14.7605 11.5678 12.9908 
337 18 14.6842 10.1862 11.2523 
338 18 14.6002 12.0233 10.4663 
339 18 15.1676 12.7996 12.2199 
340 18 15.2517 10.9624 13.006 
341 18 16.6002 10.0369 10.6984 
342 18 16.5161 11.874 9.91238 
343 18 17.0836 12.6503 11.6661 
344 18 17.1677 10.8131 12.4521 
345 8 1.94804 16.8798 11.2075 
346 8 0.388379 18.1054 10.952 
347 8 -0.849945 16.5351 10.9784 
348 8 0.709715 15.3095 11.234 
349 8 1.7636 17.0587 13.191 
350 8 0.203942 18.2843 12.9354 
351 8 -1.03438 16.714 12.9619 
352 8 0.525278 15.4884 13.2174 
353 24 16.12 16.9383 12.8423 
354 24 15.0448 16.1424 11.3556 
355 24 14.396 14.7101 12.5915 
356 24 15.4712 15.506 14.0783 
357 24 14.5634 18.085 13.3541 
358 24 13.4882 17.2892 11.8674 
359 24 12.8394 15.8569 13.1033 
360 24 13.9146 16.6528 14.5901 
361 34 6.01458 6.24069 16.5783 
362 34 4.02004 6.1482 16.6935 
363 34 4.1397 6.05092 18.6876 
364 34 6.13423 6.14341 18.5724 
365 34 5.92797 8.23618 16.6809 
366 34 3.93343 8.14369 16.7961 
367 34 4.05308 8.04641 18.7901 
368 34 6.04762 8.1389 18.6749 
369 20 11.2115 -0.85454 15.0882 
370 20 11.0339 1.02961 15.7351 
371 20 9.7544 1.4195 14.2482 
372 20 9.93196 -0.464652 13.6013 
373 20 9.68467 -1.40039 16.259 
374 20 9.50711 0.48376 16.9059 
375 20 8.22756 0.873648 15.419 
376 20 8.40512 -1.01051 14.7722 
377 21 15.3596 2.84467 12.362 
378 21 15.03 4.59882 13.2644 
379 21 13.5776 3.76392 14.3569 
380 21 13.9072 2.00977 13.4545 
381 21 16.6945 2.36939 13.7734 
382 21 16.3649 4.12355 14.6758 
383 21 14.9126 3.28865 15.7683 
384 21 15.2421 1.53449 14.8659 
385 47 12.2904 1.84333 13.4968 
386 47 12.4218 3.57229 14.4935 
387 47 10.9372 2.98939 15.7003 
388 47 10.8058 1.26043 14.7036 
389 47 13.6241 1.02422 14.7419 
390 47 13.7555 2.75317 15.7386 
391 47 12.2709 2.17027 16.9454 
392 47 12.1396 0.441319 15.9486 
393 44 18.4866 6.41561 15.992 
394 44 17.2623 7.28966 17.3101 
395 44 15.6811 6.57963 16.3123 
396 44 16.9053 5.70558 14.9942 
397 44 18.5184 4.76276 17.1177 
398 44 17.2942 5.63681 18.4357 
399 44 15.713 4.92679 17.438 
400 44 16.9372 4.05274 16.1199 
401 51 15.9007 10.9915 15.3637 
402 51 14.8002 12.5497 14.7629 
403 51 16.1878 13.8033 15.4721 
404 51 17.2884 12.2451 16.0729 
405 51 16.8298 10.9649 13.5928 
406 51 15.7292 12.5231 12.992 
407 51 17.1169 13.7767 13.7012 
408 51 18.2174 12.2185 14.302 
409 19 16.318 17.048 13.3401 
410 19 15.8803 16.8949 15.2856 
411 19 15.7987 14.9042 15.1105 
412 19 16.2364 15.0574 13.165 
413 19 18.2678 16.9304 13.7695 
414 19 17.8301 16.7772 15.715 
415 19 17.7485 14.7865 15.5399 
416 19 18.1862 14.9397 13.5944 
417 41 11.5086 3.88108 15.0613 
418 41 12.2368 5.65067 15.6429 
419 41 10.6936 5.87406 16.8953 
420 41 9.96539 4.10446 16.3137 
421 41 12.5518 2.9763 16.508 
422 41 13.28 4.7459 17.0896 
423 41 11.7368 4.96928 18.3421 
424 41 11.0086 3.19968 17.7605 
425 23 -0.374849 13.2483 15.7286 
426 23 0.231788 14.3272 14.1577 
427 23 1.03408 15.678 15.3953 
428 23 0.427445 14.5991 16.9662 
429 23 1.35383 12.2427 15.7055 
430 23 1.96046 13.3217 14.1346 
431 23 2.76276 14.6725 15.3722 
432 23 2.15612 13.5935 16.9431 
