ITEM: TIMESTEP
2000
ITEM: NUMBER OF ENTRIES
432
ITEM: BOX BOUNDS pp pp pp
0 18
0 18
0 18
ITEM: ENTRIES index c_1[1] c_1[2] c_1[3] c_1[4] 
1 11 14.481 7.70345 3.36698 
2 11 16.2427 6.88305 2.89431 
3 11 15.296 5.34353 2.03782 
4 11 13.5343 6.16393 2.51049 
5 11 14.4685 8.68163 1.62256 
6 11 16.2302 7.86123 1.14989 
7 11 15.2835 6.32171 0.293401 
8 11 13.5218 7.14211 0.766067 
9 15 5.37025 6.21045 17.0915 
10 15 4.06277 5.23674 15.9328 
11 15 2.5656 6.29278 16.7349 
12 15 3.87308 7.26649 17.8935 
13 15 5.59155 7.6021 15.6722 
14 15 4.28407 6.62838 14.5136 
15 15 2.78689 7.68442 15.3156 
16 15 4.09437 8.65813 16.4742 
17 54 14.8272 16.6162 0.202902 
18 54 16.3647 17.5867 1.03608 
19 54 15.1169 18.4385 2.34655 
20 54 13.5794 17.468 1.51338 
21 54 15.1083 15.0889 1.46325 
22 54 16.6458 16.0595 2.29642 
23 54 15.398 16.9113 3.6069 
24 54 13.8604 15.9407 2.77373 
25 3 12.518 17.7342 4.28455 
26 3 11.1401 16.2918 4.42975 
27 3 9.77328 17.5177 3.63667 
28 3 11.1511 18.9601 3.49148 
29 3 13.0009 17.0886 2.45427 
30 3 11.6231 15.6462 2.59946 
31 3 10.2563 16.8721 1.80639 
32 3 11.6341 18.3145 1.66119 
33 5 17.5919 5.79143 4.66086 
34 5 16.5973 4.13669 4.13866 
35 5 15.1723 4.5722 5.4727 
36 5 16.1669 6.22693 5.99489 
37 5 16.6019 6.82689 3.26527 
38 5 15.6073 5.17215 2.74308 
39 5 14.1823 5.60766 4.07712 
40 5 15.1768 7.26239 4.59931 
41 7 16.987 10.7836 3.95667 
42 7 18.7408 11.0481 3.03229 
43 7 19.2802 9.18576 3.52305 
44 7 17.5265 8.92134 4.44742 
45 7 16.1912 10.104 2.25236 
46 7 17.9449 10.3684 1.32798 
47 7 18.4844 8.5061 1.81873 
48 7 16.7306 8.24168 2.74311 
49 8 4.34945 14.1673 2.86968 
50 8 4.36597 12.5594 4.05897 
51 8 2.40019 12.7652 4.3645 
52 8 2.38366 14.373 3.17521 
53 8 3.98145 12.9958 1.29099 
54 8 3.99797 11.3879 2.48028 
55 8 2.03219 11.5937 2.78582 
56 8 2.01566 13.2016 1.59653 
57 13 14.6309 11.5835 3.23426 
58 13 15.9866 10.1562 2.88084 
59 13 15.435 9.21691 4.5582 
60 13 14.0793 10.6442 4.91162 
61 13 13.2679 10.5439 2.20393 
62 13 14.6236 9.11664 1.85051 
63 13 14.072 8.17736 3.52787 
64 13 12.7163 9.60462 3.88129 
65 17 12.6719 14.5244 4.92069 
66 17 12.5029 12.5507 5.19578 
67 17 10.5485 12.6608 4.78542 
68 17 10.7175 14.6346 4.51033 
69 17 13.0617 14.221 2.98266 
70 17 12.8927 12.2472 3.25775 
71 17 10.9383 12.3574 2.8474 
72 17 11.1074 14.3311 2.57231 
73 18 2.00415 14.673 3.77039 
74 18 1.74781 12.7344 3.35072 
75 18 -0.219163 12.9284 3.65633 
76 18 0.0371757 14.867 4.076 
77 18 1.74861 15.1249 1.83894 
78 18 1.49228 13.1863 1.41927 
79 18 -0.4747 13.3803 1.72489 
80 18 -0.218361 15.3189 2.14455 
81 19 1.23377 2.70737 3.95878 
82 19 0.0469093 3.35471 2.4849 
83 19 -0.917319 4.53515 3.77983 
84 19 0.269537 3.88781 5.2537 
85 19 2.52281 4.18639 3.57037 
86 19 1.33595 4.83373 2.09649 
87 19 0.371725 6.01417 3.39142 
88 19 1.55858 5.36683 4.86529 
89 2 3.24272 2.60437 8.11169 
90 2 2.42802 1.45762 6.68998 
91 2 1.58454 3.07461 5.86907 
92 2 2.39923 4.22136 7.29077 
93 2 4.86284 2.86957 6.96938 
94 2 4.04815 1.72282 5.54768 
95 2 3.20467 3.3398 4.72676 
96 2 4.01936 4.48655 6.14847 
97 6 1.47019 5.60265 7.48839 
98 6 1.88437 5.05288 5.61057 
99 6 0.124053 5.78618 5.00762 
100 6 -0.290125 6.33595 6.88544 
101 6 2.32444 7.38029 7.15636 
102 6 2.73862 6.83052 5.27854 
103 6 0.978301 7.56382 4.67559 
104 6 0.564123 8.1136 6.55341 
105 4 12.1339 9.14499 5.42236 
106 4 12.3888 7.4069 4.46631 
107 4 10.5927 6.79551 5.09886 
108 4 10.3377 8.5336 6.05492 
109 4 11.2919 9.92296 3.78351 
110 4 11.5468 8.18487 2.82746 
111 4 9.75069 7.57348 3.46001 
112 4 9.49576 9.31157 4.41607 
113 10 10.1547 12.0146 5.3186 
114 10 10.7309 10.1153 5.07259 
115 10 8.89302 9.49465 5.55947 
116 10 8.31679 11.394 5.80548 
117 10 9.61595 12.1004 3.39443 
118 10 10.1922 10.2011 3.14842 
119 10 8.35431 9.58044 3.6353 
120 10 7.77808 11.4798 3.88131 
121 12 16.3367 13.737 3.54597 
122 12 17.2604 12.053 4.10364 
123 12 16.164 12.0053 5.77567 
124 12 15.2403 13.6893 5.218 
125 12 14.9422 12.659 2.60081 
126 12 15.8659 10.9751 3.15848 
127 12 14.7696 10.9273 4.83051 
128 12 13.8458 12.6113 4.27284 
129 33 6.70443 14.0857 5.33673 
130 33 6.73663 12.1753 4.74568 
131 33 4.78967 12.2802 4.30035 
132 33 4.75747 14.1906 4.8914 
133 33 7.16083 14.6682 3.47868 
134 33 7.19303 12.7578 2.88764 
135 33 5.24607 12.8628 2.4423 
136 33 5.21387 14.7732 3.03335 
137 16 9.66531 15.3135 5.87997 
138 16 8.9538 13.8069 4.77371 
139 16 7.59099 15.0351 3.97742 
140 16 8.3025 16.5418 5.08368 
141 16 10.9446 15.784 4.41637 
142 16 10.2331 14.2774 3.31011 
143 16 8.87024 15.5057 2.51382 
144 16 9.58176 17.0123 3.62009 
145 14 3.5433 16.7733 4.41118 
146 14 4.71323 16.5169 2.80944 
147 14 3.22179 17.1235 1.62299 
148 14 2.05186 17.3799 3.22473 
149 14 4.18117 18.6618 4.57483 
150 14 5.3511 18.4054 2.97309 
151 14 3.85965 19.012 1.78664 
152 14 2.68973 19.2683 3.38838 
153 21 3.37803 18.2741 7.90299 
154 21 3.13756 16.4459 7.12859 
155 21 1.6816 17.1386 5.94525 
156 21 1.92208 18.9669 6.71964 
157 21 4.72798 18.6956 6.48878 
158 21 4.48751 16.8673 5.71438 
159 21 3.03156 17.5601 4.53103 
160 21 3.27203 19.3883 5.30543 
161 23 10.924 0.985629 7.57331 
162 23 10.9242 -1.01437 7.57343 
163 23 8.92423 -1.01456 7.57334 
164 23 8.92404 0.985437 7.57323 
165 23 10.9241 0.985519 5.57331 
166 23 10.9243 -1.01448 5.57343 
167 23 8.92431 -1.01467 5.57334 
168 23 8.92412 0.985326 5.57323 
169 29 18.7053 1.34745 7.89357 
170 29 18.5112 2.888 6.633 
171 29 17.4314 1.74249 5.39933 
172 29 17.6255 0.201942 6.6599 
173 29 17.033 1.90827 8.83645 
174 29 16.8389 3.44882 7.57589 
175 29 15.7592 2.30332 6.34222 
176 29 15.9533 0.762768 7.60279 
177 27 12.9761 8.13504 7.94887 
178 27 12.4779 6.4354 7.01993 
179 27 10.6754 6.49106 7.88485 
180 27 11.1737 8.19071 8.8138 
181 27 12.267 9.18771 6.40324 
182 27 11.7687 7.48806 5.4743 
183 27 9.96627 7.54373 6.33922 
184 27 10.4645 9.24337 7.26817 
185 28 13.1787 11.2366 8.16078 
186 28 14.7459 10.0307 7.86138 
187 28 13.6191 8.85431 6.70108 
188 28 12.0519 10.0602 7.00048 
189 28 13.7022 12.3145 6.55951 
190 28 15.2694 11.1087 6.26011 
191 28 14.1426 9.93223 5.09981 
192 28 12.5753 11.1381 5.39921 
193 31 3.16085 14.8109 8.75128 
194 31 2.59974 13.0308 8.03278 
195 31 0.686191 13.4897 8.39015 
196 31 1.24729 15.2698 9.10866 
197 31 3.00762 15.5986 6.91933 
198 31 2.44652 13.8185 6.20083 
199 31 0.532964 14.2774 6.5582 
200 31 1.09407 16.0575 7.27671 
201 35 15.8105 13.1062 9.41438 
202 35 16.0273 11.5882 8.13031 
203 35 14.0494 11.5549 7.83582 
204 35 13.8326 13.0729 9.11988 
205 35 16.0126 14.408 7.90957 
206 35 16.2294 12.8901 6.6255 
207 35 14.2515 12.8567 6.33101 
208 35 14.0347 14.3747 7.61507 
209 25 2.925 4.26688 10.5619 
210 25 2.22885 2.99451 9.18475 
211 25 0.491814 3.98513 9.14759 
212 25 1.18797 5.2575 10.5247 
213 25 3.63075 5.45 9.11199 
214 25 2.9346 4.17763 7.73487 
215 25 1.19756 5.16825 7.6977 
216 25 1.89371 6.44061 9.07482 
217 26 9.44564 11.0841 8.06832 
218 26 10.1195 9.22064 7.79755 
219 26 8.31546 8.49929 8.27181 
220 26 7.64155 10.3628 8.54258 
221 26 8.90609 11.1686 6.14433 
222 26 9.58 9.30508 5.87356 
223 26 7.77592 8.58373 6.34782 
224 26 7.102 10.4472 6.61859 
225 30 0.719606 13.3193 9.08885 
226 30 2.70596 13.0861 9.0951 
227 30 2.50004 11.358 10.0806 
228 30 0.513687 11.5911 10.0744 
229 30 0.610132 12.3398 7.34853 
230 30 2.59649 12.1067 7.35478 
231 30 2.39057 10.3786 8.3403 
232 30 0.404213 10.6117 8.33404 
233 36 0.655762 17.2073 10.2222 
234 36 0.749801 15.454 9.26457 
235 36 -1.1673 15.6445 8.72752 
236 36 -1.26134 17.3978 9.6852 
237 36 1.21779 18.1505 8.55059 
238 36 1.31183 16.3972 7.59291 
239 36 -0.605272 16.5878 7.05586 
240 36 -0.699311 18.341 8.01355 
241 34 8.61684 5.18191 11.3452 
242 34 10.3493 4.65516 12.1944 
243 34 9.35151 3.64948 13.6062 
244 34 7.61906 4.17623 12.7569 
245 34 8.67204 3.53536 10.2113 
246 34 10.4045 3.00861 11.0605 
247 34 9.4067 2.00292 12.4722 
248 34 7.67426 2.52968 11.623 
249 24 -0.596503 2.70263 12.171 
250 24 -0.00345235 1.10327 11.1268 
251 24 -0.795792 1.89214 9.46849 
252 24 -1.38884 3.49149 10.5127 
253 24 1.14145 3.60803 11.7713 
254 24 1.7345 2.00868 10.7271 
255 24 0.942164 2.79754 9.06879 
256 24 0.349113 4.3969 10.113 
257 22 6.36969 5.19028 9.75679 
258 22 7.85948 4.60031 10.9536 
259 22 6.62002 3.32402 11.8673 
260 22 5.13024 3.91399 10.6705 
261 22 6.86394 3.76795 8.44047 
262 22 8.35373 3.17798 9.63733 
263 22 7.11427 1.90169 10.551 
264 22 5.62448 2.49166 9.35416 
265 20 1.29385 6.5239 14.0868 
266 20 0.429539 5.18515 15.2954 
267 20 -0.341877 4.24811 13.7058 
268 20 0.522437 5.58687 12.4972 
269 20 2.92415 5.37078 13.9753 
270 20 2.05984 4.03202 15.1839 
271 20 1.28842 3.09499 13.5943 
272 20 2.15274 4.43374 12.3857 
273 32 5.70516 15.6067 11.0616 
274 32 5.43281 14.1189 9.75307 
275 32 4.42691 13.0848 11.1382 
276 32 4.69926 14.5726 12.4468 
277 32 3.99812 16.4535 10.4541 
278 32 3.72577 14.9657 9.1456 
279 32 2.71987 13.9316 10.5308 
280 32 2.99222 15.4194 11.8393 
281 53 6.38192 15.7271 6.36753 
282 53 5.94434 13.8079 6.72107 
283 53 4.84546 14.3496 8.30188 
284 53 5.28304 16.2689 7.94834 
285 53 4.76917 15.8787 5.19448 
286 53 4.33158 13.9595 5.54803 
287 53 3.2327 14.5012 7.12884 
288 53 3.67029 16.4205 6.7753 
289 37 16.2527 -0.369356 12.6808 
290 37 16.6037 -1.67547 11.2074 
291 37 15.6727 -0.466776 9.91418 
292 37 15.3218 0.839333 11.3876 
293 37 17.9877 0.543412 12.2849 
294 37 18.3386 -0.762697 10.8115 
295 37 17.4077 0.445992 9.51827 
296 37 17.0567 1.7521 10.9917 
297 41 14.4872 3.20029 13.9616 
298 41 13.2279 2.01452 14.9656 
299 41 13.0028 3.43252 16.3579 
300 41 14.2621 4.61829 15.3539 
301 41 12.9499 3.96398 12.9352 
302 41 11.6906 2.77821 13.9392 
303 41 11.4654 4.19621 15.3316 
304 41 12.7248 5.38198 14.3276 
305 47 16.5381 6.60574 13.9676 
306 47 16.1836 4.65165 13.7313 
307 47 14.8523 4.71284 15.2225 
308 47 15.2068 6.66694 15.4588 
309 47 15.0883 7.02735 12.6559 
310 47 14.7338 5.07325 12.4196 
311 47 13.4025 5.13444 13.9109 
312 47 13.757 7.08854 14.1472 
313 43 17.5226 6.54524 12.6289 
314 43 17.6891 4.56818 12.881 
315 43 15.7092 4.37505 12.6739 
316 43 15.5427 6.3521 12.4218 
317 43 17.7516 6.31292 10.6557 
318 43 17.9181 4.33587 10.9078 
319 43 15.9383 4.14274 10.7007 
320 43 15.7718 6.11979 10.4486 
321 45 8.26483 13.8605 12.6876 
322 45 8.26604 11.8605 12.6768 
323 45 6.26606 11.8592 12.6865 
324 45 6.26485 13.8592 12.6972 
325 45 8.25514 13.8712 10.6876 
326 45 8.25635 11.8712 10.6769 
327 45 6.25637 11.87 10.6866 
328 45 6.25516 13.8699 10.6973 
329 51 7.12603 0.872771 14.3369 
330 51 7.29917 2.8186 14.7656 
331 51 8.63766 2.38624 16.1874 
332 51 8.46451 0.440419 15.7587 
333 51 8.602 1.03659 12.9973 
334 51 8.77514 2.98241 13.426 
335 51 10.1136 2.55006 14.8478 
336 51 9.94048 0.604235 14.4191 
337 39 11.9909 15.7484 17.2609 
338 39 10.1539 15.2383 17.8651 
339 39 9.72362 17.1653 18.1839 
340 39 11.5607 17.6754 17.5797 
341 39 11.3274 15.9113 15.3812 
342 39 9.4904 15.4011 15.9854 
343 39 9.06016 17.3281 16.3042 
344 39 10.8972 17.8382 15.7 
345 42 17.4958 1.78254 14.3942 
346 42 16.0884 0.731124 15.3502 
347 42 15.1153 2.42467 15.7802 
348 42 16.5227 3.47609 14.8242 
349 42 16.4602 1.62003 12.6909 
350 42 15.0528 0.568608 13.6469 
351 42 14.0797 2.26216 14.077 
352 42 15.4871 3.31358 13.121 
353 44 3.87194 9.49807 16.4144 
354 44 2.43157 8.69736 15.2812 
355 44 1.07677 9.86178 16.1804 
356 44 2.51715 10.6625 17.3137 
357 44 4.1717 10.9133 15.0334 
358 44 2.73132 10.1126 13.9002 
359 44 1.37653 11.277 14.7994 
360 44 2.8169 12.0778 15.9326 
361 50 7.23632 14.316 16.4566 
362 50 8.57117 13.7249 15.0895 
363 50 7.41074 12.1614 14.6325 
364 50 6.0759 12.7525 15.9995 
365 50 6.30272 15.4142 15.0701 
366 50 7.63757 14.8231 13.7031 
367 50 6.47714 13.2596 13.246 
368 50 5.1423 13.8507 14.6131 
369 49 17.0603 3.38106 15.8971 
370 49 17.3948 3.76592 17.831 
371 49 16.591 2.00138 18.3211 
372 49 16.2565 1.61653 16.3872 
373 49 18.8609 2.52181 15.7566 
374 49 19.1954 2.90667 17.6905 
375 49 18.3915 1.14213 18.1807 
376 49 18.0571 0.757279 16.2468 
377 1 12.422 17.2487 15.9167 
378 1 14.3585 17.5934 16.2787 
379 1 14.0506 17.2753 18.229 
380 1 12.114 16.9306 17.8671 
381 1 12.8157 15.3045 15.6618 
382 1 14.7522 15.6492 16.0237 
383 1 14.4443 15.3311 17.9741 
384 1 12.5077 14.9864 17.6122 
385 38 10.9722 2.4818 0.569267 
386 38 11.4926 0.823775 -0.42079 
387 38 10.7855 -0.293958 1.07948 
388 38 10.2652 1.36407 2.06954 
389 38 9.17518 2.44148 -0.307648 
390 38 9.69551 0.783451 -1.2977 
391 38 8.9885 -0.334283 0.202564 
392 38 8.46817 1.32374 1.19262 
393 40 10.9883 5.10522 18.4621 
394 40 12.1706 4.62913 16.9208 
395 40 12.0528 2.69784 17.427 
396 40 10.8704 3.17393 18.9683 
397 40 9.37948 4.89676 17.2923 
398 40 10.5618 4.42067 15.7511 
399 40 10.444 2.48938 16.2573 
400 40 9.26167 2.96547 17.7985 
401 9 7.5374 5.49618 15.3254 
402 9 7.53024 3.52142 15.6421 
403 9 5.55131 3.48258 15.3551 
404 9 5.55847 5.45734 15.0385 
405 9 7.82687 5.18183 13.3716 
406 9 7.81971 3.20707 13.6883 
407 9 5.84078 3.16823 13.4013 
408 9 5.84795 5.14299 13.0847 
409 46 13.1701 7.72712 2.1804 
410 46 12.9628 5.75014 1.96001 
411 46 10.9755 5.94636 2.06866 
412 46 11.1827 7.92334 2.28906 
413 46 13.0843 7.95739 0.195553 
414 46 12.8771 5.9804 -0.0248405 
415 46 10.8897 6.17662 0.0838136 
416 46 11.0969 8.15361 0.304207 
417 48 16.3966 11.5037 1.13446 
418 48 16.3976 9.50375 1.13902 
419 48 14.3976 9.50274 1.14374 
420 48 14.3966 11.5027 1.13918 
421 48 16.3919 11.4992 -0.865533 
422 48 16.3929 9.49918 -0.860974 
423 48 14.3929 9.49818 -0.856245 
424 48 14.3919 11.4982 -0.860805 
425 52 12.0689 14.4086 18.9133 
426 52 12.6487 12.6921 18.0664 
427 52 10.7379 12.1212 17.9151 
428 52 10.1581 13.8378 18.7621 
429 52 11.957 15.2616 17.1078 
430 52 12.5368 13.5451 16.2609 
431 52 10.626 12.9743 16.1096 
432 52 10.0462 14.6908 16.9566 
