ITEM: TIMESTEP
8000
ITEM: NUMBER OF ENTRIES
432
ITEM: BOX BOUNDS pp pp pp
0 18
0 18
0 18
ITEM: ENTRIES index c_1[1] c_1[2] c_1[3] c_1[4] 
1 14 6.39891 13.0721 19.0546 
2 14 6.22024 14.9528 18.3981 
3 14 8.00492 14.8112 17.5065 
4 14 8.18358 12.9304 18.163 
5 14 5.51402 12.4067 17.389 
6 14 5.33536 14.2874 16.7325 
7 14 7.12003 14.1457 15.8409 
8 14 7.29869 12.265 16.4974 
9 45 9.99054 17.0964 -1.04587 
10 45 11.0569 15.4801 -0.545321 
11 45 11.5544 16.3451 1.18793 
12 45 10.4881 17.9614 0.687383 
13 45 8.37333 16.2968 -0.182571 
14 45 9.43965 14.6805 0.317978 
15 45 9.93721 15.5456 2.05123 
16 45 8.87089 17.1619 1.55068 
17 1 9.6345 17.6753 1.64829 
18 1 9.96253 15.9445 2.59518 
19 1 10.7142 16.9416 4.15746 
20 1 10.3862 18.6725 3.21056 
21 1 7.81039 17.775 2.46235 
22 1 8.13842 16.0441 3.40924 
23 1 8.8901 17.0413 4.97152 
24 1 8.56206 18.7721 4.02462 
25 48 12.836 12.2741 2.64957 
26 48 14.6831 11.8381 3.28051 
27 48 13.9257 11.0591 4.95962 
28 48 12.0786 11.4951 4.32868 
29 48 12.7157 10.4844 1.76499 
30 48 14.5628 10.0484 2.39593 
31 48 13.8054 9.26942 4.07504 
32 48 11.9583 9.70544 3.4441 
33 12 12.0716 12.9145 2.53472 
34 12 13.942 13.6214 2.57725 
35 12 13.2976 15.2705 3.5075 
36 12 11.4272 14.5636 3.46497 
37 12 12.3653 12.0308 4.3047 
38 12 14.2358 12.7378 4.34723 
39 12 13.5914 14.3868 5.27748 
40 12 11.7209 13.6799 5.23495 
41 49 6.20287 14.0939 3.96829 
42 49 6.00323 14.533 5.90924 
43 49 6.32865 16.4647 5.50567 
44 49 6.52829 16.0255 3.56472 
45 49 4.23965 14.3694 3.70403 
46 49 4.04001 14.8086 5.64498 
47 49 4.36543 16.7402 5.2414 
48 49 4.56506 16.301 3.30045 
49 7 14.3577 13.781 4.92664 
50 7 14.1022 14.5619 3.10319 
51 7 15.9231 15.3836 3.19997 
52 7 16.1785 14.6027 5.02342 
53 7 15.1446 12.1333 4.11074 
54 7 14.8891 12.9142 2.2873 
55 7 16.71 13.7358 2.38408 
56 7 16.9654 12.9549 4.20752 
57 39 10.4475 18.672 6.70634 
58 39 8.72385 17.6711 6.5422 
59 39 9.73533 15.9992 6.11579 
60 39 11.459 17.0002 6.27994 
61 39 10.5237 18.2215 8.65345 
62 39 8.80005 17.2205 8.4893 
63 39 9.81153 15.5487 8.0629 
64 39 11.5352 16.5497 8.22704 
65 52 7.79851 0.561035 5.47088 
66 52 6.03254 0.958431 6.32141 
67 52 6.75566 0.378746 8.09371 
68 52 8.52164 -0.0186497 7.24318 
69 52 8.39719 2.43348 5.83905 
70 52 6.63121 2.83087 6.68958 
71 52 7.35434 2.25119 8.46188 
72 52 9.12031 1.85379 7.61135 
73 11 3.03722 16.4142 4.25439 
74 11 1.24826 15.5268 4.36406 
75 11 2.00702 14.15 5.60055 
76 11 3.79598 15.0375 5.49088 
77 11 2.56405 17.5618 5.82253 
78 11 0.775087 16.6744 5.9322 
79 11 1.53384 15.2976 7.16869 
80 11 3.32281 16.1851 7.05902 
81 13 12.457 12.0253 4.83868 
82 13 14.4035 11.7841 4.44746 
83 13 14.7959 13.5426 5.31574 
84 13 12.8495 13.7838 5.70696 
85 13 12.6963 11.1035 6.59738 
86 13 14.6428 10.8623 6.20615 
87 13 15.0352 12.6208 7.07444 
88 13 13.0887 12.8619 7.46566 
89 5 12.1378 14.8769 4.60325 
90 5 11.1313 16.546 5.05143 
91 5 9.5177 15.4527 5.4997 
92 5 10.5242 13.7835 5.05152 
93 5 12.7569 14.7409 6.50014 
94 5 11.7504 16.41 6.94832 
95 5 10.1368 15.3167 7.39659 
96 5 11.1433 13.6475 6.94841 
97 31 6.77092 14.7739 5.18439 
98 31 8.73566 14.6772 5.54556 
99 31 8.87662 16.6582 5.30947 
100 31 6.91188 16.7549 4.9483 
101 31 6.4246 15.0313 7.13729 
102 31 8.38934 14.9345 7.49846 
103 31 8.5303 16.9155 7.26237 
104 31 6.56556 17.0123 6.9012 
105 40 18.4573 16.7303 5.6404 
106 40 16.8873 17.9668 5.56168 
107 40 16.2263 17.0235 3.92669 
108 40 17.7963 15.787 4.00541 
109 40 17.4094 15.4729 6.78958 
110 40 15.8394 16.7093 6.71086 
111 40 15.1784 15.766 5.07587 
112 40 16.7484 14.5295 5.15459 
113 25 0.536177 5.58381 6.83704 
114 25 -0.420572 4.2657 5.67634 
115 25 -0.329581 5.54847 4.1446 
116 25 0.627168 6.86658 5.3053 
117 25 2.29013 4.79826 6.28336 
118 25 1.33338 3.48015 5.12266 
119 25 1.42437 4.76292 3.59092 
120 25 2.38112 6.08103 4.75162 
121 22 12.1885 4.1038 3.45678 
122 22 13.576 3.45858 4.74461 
123 22 13.1765 5.00413 5.94944 
124 22 11.789 5.64936 4.66161 
125 22 10.8046 3.01067 4.40011 
126 22 12.1921 2.36544 5.68794 
127 22 11.7926 3.911 6.89277 
128 22 10.4051 4.55622 5.60494 
129 4 15.7367 8.04835 8.19445 
130 4 14.4867 8.33311 6.65936 
131 4 14.9647 6.53089 5.93583 
132 4 16.2147 6.24613 7.47092 
133 4 14.2504 7.22928 9.25275 
134 4 13.0004 7.51404 7.71766 
135 4 13.4784 5.71181 6.99413 
136 4 14.7284 5.42705 8.52923 
137 27 17.2862 9.3603 6.48223 
138 27 17.4868 7.63238 5.49529 
139 27 18.6933 6.94918 6.93666 
140 27 18.4927 8.6771 7.9236 
141 27 15.7037 8.62037 7.45609 
142 27 15.9043 6.89244 6.46915 
143 27 17.1109 6.20924 7.91052 
144 27 16.9103 7.93716 8.89746 
145 38 14.5673 13.5679 6.44536 
146 38 14.2947 15.0172 7.79638 
147 38 15.9753 14.4641 8.72887 
148 38 16.2479 13.0148 7.37785 
149 38 15.6167 14.8303 5.30291 
150 38 15.3441 16.2796 6.65394 
151 38 17.0247 15.7265 7.58643 
152 38 17.2973 14.2772 6.2354 
153 54 -0.251439 15.5758 7.2826 
154 54 1.42278 15.0099 8.21892 
155 54 0.328872 14.1737 9.66951 
156 54 -1.34535 14.7397 8.73319 
157 54 -0.27046 13.8494 6.2731 
158 54 1.40376 13.2835 7.20943 
159 54 0.309852 12.4473 8.66002 
160 54 -1.36437 13.0133 7.7237 
161 2 5.61072 14.9472 9.34025 
162 2 7.25594 15.4669 10.3518 
163 2 8.05345 16.2078 8.67393 
164 2 6.40823 15.688 7.66243 
165 2 4.80002 16.7307 9.74246 
166 2 6.44524 17.2504 10.754 
167 2 7.24275 17.9913 9.07615 
168 2 5.59753 17.4716 8.06464 
169 16 7.62257 2.46073 9.47961 
170 16 7.58194 0.523917 8.98253 
171 16 7.58763 0.0266217 10.9197 
172 16 7.62827 1.96344 11.4168 
173 16 5.623 2.49868 9.49523 
174 16 5.58236 0.561864 8.99815 
175 16 5.58805 0.064569 10.9353 
176 16 5.62869 2.00139 11.4324 
177 9 14.3574 4.04026 8.52192 
178 9 15.8994 3.85905 9.78266 
179 9 16.7087 2.46983 8.59311 
180 9 15.1667 2.65104 7.33236 
181 9 15.3409 5.46758 7.52417 
182 9 16.8829 5.28636 8.78492 
183 9 17.6922 3.89714 7.59536 
184 9 16.1502 4.07835 6.33462 
185 17 15.1716 10.627 9.97 
186 17 16.2098 8.92128 9.85721 
187 17 15.284 8.24924 11.4977 
188 17 14.2458 9.95493 11.6105 
189 17 13.7347 9.82759 8.83153 
190 17 14.7729 8.1219 8.71873 
191 17 13.847 7.44987 10.3592 
192 17 12.8088 9.15556 10.472 
193 28 18.3357 9.52607 8.98365 
194 28 18.8068 10.996 7.71183 
195 28 17.2135 10.5383 6.59281 
196 28 16.7425 9.06842 7.86463 
197 28 17.2223 10.8028 10.0468 
198 28 17.6933 12.2727 8.77498 
199 28 16.1001 11.815 7.65596 
200 28 15.629 10.3451 8.92778 
201 35 2.57132 12.1438 9.18491 
202 35 0.985941 11.5836 8.10196 
203 35 0.958837 9.82386 9.05194 
204 35 2.54421 10.384 10.1349 
205 35 1.35236 12.9115 10.5723 
206 35 -0.233014 12.3513 9.48932 
207 35 -0.260118 10.5916 10.4393 
208 35 1.32526 11.1518 11.5222 
209 32 13.4744 12.4661 8.53153 
210 32 12.6105 11.2681 7.183 
211 32 11.3628 10.5852 8.58899 
212 32 12.2267 11.7832 9.93752 
213 32 12.1718 13.9147 8.07912 
214 32 11.3079 12.7168 6.7306 
215 32 10.0602 12.0339 8.13659 
216 32 10.9241 13.2319 9.48511 
217 3 15.8834 12.4663 10.445 
218 3 15.6247 11.1907 8.92652 
219 3 13.7254 11.7909 8.74592 
220 3 13.9841 13.0665 10.2644 
221 3 16.4543 13.885 9.15595 
222 3 16.1955 12.6093 7.63748 
223 3 14.2963 13.2095 7.45688 
224 3 14.555 14.4851 8.97535 
225 29 3.19737 14.5436 10.3863 
226 29 3.08867 16.3346 9.50302 
227 29 1.46084 15.7428 8.50311 
228 29 1.56954 13.9517 9.38639 
229 29 2.0405 15.2081 11.8763 
230 29 1.9318 16.9992 10.993 
231 29 0.303972 16.4073 9.99307 
232 29 0.412668 14.6162 10.8764 
233 46 15.9337 17.8615 9.28155 
234 46 16.4338 19.172 7.85587 
235 46 18.3417 18.5865 7.98682 
236 46 17.8416 17.276 9.4125 
237 46 15.6022 16.4688 7.88501 
238 46 16.1022 17.7793 6.45934 
239 46 18.0101 17.1938 6.59029 
240 46 17.5101 15.8833 8.01597 
241 33 -0.27347 3.12891 7.7817 
242 33 -0.246704 3.00404 9.77762 
243 33 0.481495 1.14559 9.65158 
244 33 0.454729 1.27046 7.65566 
245 33 1.58906 3.85731 7.80229 
246 33 1.61582 3.73244 9.79821 
247 33 2.34402 1.87399 9.67218 
248 33 2.31726 1.99886 7.67626 
249 53 15.3421 1.41055 8.44417 
250 53 17.3326 1.58442 8.53076 
251 53 17.1427 3.13824 9.77559 
252 53 15.1522 2.96437 9.689 
253 53 15.383 0.163384 10.0071 
254 53 17.3736 0.337258 10.0937 
255 53 17.1837 1.89107 11.3386 
256 53 15.1931 1.7172 11.252 
257 42 3.14423 4.05856 8.29512 
258 42 3.48951 6.02459 8.41972 
259 42 1.64295 6.39166 7.74483 
260 42 1.29767 4.42564 7.62022 
261 42 2.45793 4.06004 10.1737 
262 42 2.80322 6.02606 10.2983 
263 42 0.956659 6.39313 9.62339 
264 42 0.611376 4.42711 9.49879 
265 10 15.36 7.72911 11.3724 
266 10 14.6812 7.16905 9.57638 
267 10 15.4607 5.3476 9.8498 
268 10 16.1394 5.90766 11.6458 
269 10 13.6477 7.12194 12.2088 
270 10 12.969 6.56188 10.4128 
271 10 13.7485 4.74043 10.6862 
272 10 14.4272 5.30049 12.4822 
273 26 17.7291 7.80569 11.5252 
274 26 16.4345 8.18587 10.0489 
275 26 17.8309 7.7046 8.70038 
276 26 19.1255 7.32442 10.1767 
277 26 17.1175 5.90205 11.5713 
278 26 15.8229 6.28223 10.0949 
279 26 17.2193 5.80096 8.74647 
280 26 18.5139 5.42078 10.2228 
281 18 15.2485 9.4986 11.6292 
282 18 14.7729 11.2484 10.7855 
283 18 15.3474 12.2049 12.4453 
284 18 15.823 10.4551 13.289 
285 18 17.1043 9.65098 10.8991 
286 18 16.6287 11.4008 10.0554 
287 18 17.2031 12.3573 11.7152 
288 18 17.6788 10.6075 12.559 
289 36 2.70467 13.2797 12.9971 
290 36 3.75294 11.7303 12.2898 
291 36 2.17304 11.1561 11.2062 
292 36 1.12477 12.7055 11.9135 
293 36 3.34109 14.4064 11.4721 
294 36 4.38936 12.857 10.7648 
295 36 2.80946 12.2828 9.68122 
296 36 1.76118 13.8322 10.3885 
297 37 15.9332 13.046 10.6049 
298 37 17.3709 13.9783 9.57341 
299 37 16.0037 15.1961 8.76862 
300 37 14.566 14.2638 9.80011 
301 37 16.1862 14.3296 12.1176 
302 37 17.6238 15.2619 11.0861 
303 37 16.2566 16.4797 10.2813 
304 37 14.819 15.5474 11.3128 
305 43 8.2957 1.07234 12.9823 
306 43 8.12346 -0.266875 11.5068 
307 43 9.53889 0.693219 10.4701 
308 43 9.71114 2.03243 11.9455 
309 43 9.69816 -0.0611138 13.8473 
310 43 9.52591 -1.40033 12.3719 
311 43 10.9413 -0.440237 11.3352 
312 43 11.1136 0.898979 12.8106 
313 50 0.741799 4.98424 12.6237 
314 50 2.66162 4.53032 12.9527 
315 50 2.95422 4.34059 10.9833 
316 50 1.0344 4.79452 10.6544 
317 50 1.21998 6.92279 12.508 
318 50 3.1398 6.46886 12.837 
319 50 3.4324 6.27914 10.8676 
320 50 1.51257 6.73306 10.5387 
321 6 15.3099 7.97529 14.4668 
322 6 16.2633 9.7186 14.239 
323 6 17.2275 9.41682 15.9651 
324 6 16.2741 7.67351 16.1928 
325 6 16.7801 7.04267 13.4825 
326 6 17.7335 8.78598 13.2547 
327 6 18.6977 8.4842 14.9808 
328 6 17.7442 6.74089 15.2085 
329 8 19.4668 17.278 11.1285 
330 8 18.1005 18.1411 9.95023 
331 8 16.9507 16.5105 10.0892 
332 8 18.317 15.6475 11.2675 
333 8 18.5661 18.0504 12.7386 
334 8 17.1998 18.9134 11.5603 
335 8 16.0501 17.2829 11.6993 
336 8 17.4163 16.4199 12.8776 
337 24 14.3871 17.053 12.1081 
338 24 14.2644 15.5658 10.7766 
339 24 14.3438 14.2291 12.2622 
340 24 14.4665 15.7164 13.5938 
341 24 12.3924 17.0913 12.2492 
342 24 12.2697 15.604 10.9177 
343 24 12.3492 14.2674 12.4034 
344 24 12.4719 15.7546 13.7349 
345 20 9.86434 16.7426 13.8409 
346 20 9.4817 18.4065 14.8825 
347 20 8.04604 18.8931 13.5779 
348 20 8.42868 17.2293 12.5362 
349 20 8.52552 15.7453 14.9422 
350 20 8.14288 17.4092 15.9838 
351 20 6.70721 17.8958 14.6792 
352 20 7.08985 16.2319 13.6375 
353 47 10.7148 1.86955 13.088 
354 47 11.3857 2.68979 14.7842 
355 47 9.94996 1.74639 15.8083 
356 47 9.27906 0.926139 14.1121 
357 47 11.9349 0.308402 13.3604 
358 47 12.6058 1.12865 15.0566 
359 47 11.1701 0.185241 16.0806 
360 47 10.4992 -0.635006 14.3844 
361 21 14.0535 4.55183 12.2035 
362 21 12.1208 4.10326 12.4551 
363 21 12.566 3.13335 14.1465 
364 21 14.4988 3.58192 13.895 
365 21 13.7961 6.24241 13.2407 
366 21 11.8634 5.79384 13.4923 
367 21 12.3087 4.82392 15.1837 
368 21 14.2414 5.2725 14.9322 
369 15 16.5155 9.44222 15.8732 
370 15 15.0188 10.2075 16.9567 
371 15 15.2553 11.9689 16.0394 
372 15 16.7521 11.2036 14.9559 
373 15 15.2103 8.88383 14.4645 
374 15 13.7135 9.64915 15.548 
375 15 13.9501 11.4105 14.6307 
376 15 15.4468 10.6452 13.5472 
377 23 0.637399 13.6712 14.7827 
378 23 -0.0596858 15.4528 14.1996 
379 23 1.77569 16.228 14.374 
380 23 2.47278 14.4464 14.9571 
381 23 1.01878 13.1969 12.8775 
382 23 0.321698 14.9785 12.2945 
383 23 2.15708 15.7537 12.4689 
384 23 2.85416 13.9721 13.052 
385 51 17.6775 11.3516 14.8938 
386 51 15.8856 12.2348 14.9883 
387 51 16.7515 14.0191 14.7301 
388 51 18.5434 13.1358 14.6356 
389 51 17.4791 11.1612 12.9128 
390 51 15.6872 12.0444 13.0073 
391 51 16.5531 13.8287 12.7491 
392 51 18.345 12.9454 12.6546 
393 19 14.8033 17.0943 12.5187 
394 19 14.2195 17.1552 14.4306 
395 19 14.863 15.2789 14.6869 
396 19 15.4468 15.218 12.7749 
397 19 16.6048 17.7842 13.0468 
398 19 16.0209 17.8451 14.9587 
399 19 16.6644 15.9688 15.215 
400 19 17.2482 15.9079 13.3031 
401 41 10.6006 3.05492 15.6044 
402 41 12.1005 3.9663 16.5634 
403 41 11.0457 3.91487 18.2619 
404 41 9.54581 3.00349 17.3029 
405 41 11.3992 1.27539 16.0465 
406 41 12.8991 2.18676 17.0055 
407 41 11.8443 2.13533 18.704 
408 41 10.3444 1.22396 17.7449 
409 44 18.2721 2.58067 1.851 
410 44 16.5077 3.50783 2.01669 
411 44 16.9202 4.58473 0.382627 
412 44 18.6845 3.65757 0.216941 
413 44 17.4253 1.17331 0.709784 
414 44 15.661 2.10047 0.875471 
415 44 16.0734 3.17737 -0.758593 
416 44 17.8378 2.25021 -0.924279 
417 34 2.59185 17.3745 3.02107 
418 34 4.40257 17.0559 2.23382 
419 34 4.38662 15.1895 2.9524 
420 34 2.57589 15.5081 3.73965 
421 34 1.74272 16.7302 1.32877 
422 34 3.55345 16.4116 0.54152 
423 34 3.5375 14.5452 1.2601 
424 34 1.72677 14.8638 2.04735 
425 30 10.2921 14.3682 16.5096 
426 30 11.6726 15.8153 16.5238 
427 30 11.9983 15.5237 14.5722 
428 30 10.6178 14.0766 14.558 
429 30 8.88209 15.7176 16.0727 
430 30 10.2626 17.1647 16.0869 
431 30 10.5883 16.8731 14.1352 
432 30 9.2078 15.426 14.1211 
