ITEM: TIMESTEP
5000
ITEM: NUMBER OF ENTRIES
432
ITEM: BOX BOUNDS pp pp pp
0 18
0 18
0 18
ITEM: ENTRIES index c_1[1] c_1[2] c_1[3] c_1[4] 
1 21 17.9292 0.220232 15.9032 
2 21 17.6201 -0.618611 17.6923 
3 21 18.4364 0.976312 18.5811 
4 21 18.7454 1.81515 16.792 
5 21 16.1297 1.08774 15.9991 
6 21 15.8206 0.248893 17.7882 
7 21 16.6369 1.84382 18.677 
8 21 16.9459 2.68266 16.8879 
9 14 15.7222 5.11642 1.96541 
10 14 16.3772 6.64982 0.861062 
11 14 18.206 6.42966 1.64013 
12 14 17.551 4.89625 2.74448 
13 14 16.1979 3.85143 0.491142 
14 14 16.853 5.38483 -0.613205 
15 14 18.6818 5.16467 0.165867 
16 14 18.0267 3.63126 1.27021 
17 19 0.755036 13.3057 -1.36151 
18 19 0.705381 14.8842 -0.134427 
19 19 0.65116 13.6561 1.4432 
20 19 0.700815 12.0776 0.216113 
21 19 2.75368 13.3116 -1.28823 
22 19 2.70403 14.8901 -0.0611414 
23 19 2.64981 13.662 1.51648 
24 19 2.69946 12.0835 0.289398 
25 39 9.83281 7.23417 1.57055 
26 39 10.5545 8.62249 2.81626 
27 39 8.91519 9.73181 2.52959 
28 39 8.19353 8.34349 1.28389 
29 39 8.94288 6.31658 3.10875 
30 39 9.66454 7.7049 4.35445 
31 39 8.02526 8.81422 4.06779 
32 39 7.3036 7.4259 2.82209 
33 48 13.7168 12.593 1.02652 
34 48 15.3067 11.7927 1.93844 
35 48 14.1059 10.5394 2.93212 
36 48 12.516 11.3398 2.0202 
37 48 13.8906 11.2556 -0.4503 
38 48 15.4805 10.4553 0.461617 
39 48 14.2797 9.20199 1.4553 
40 48 12.6898 10.0023 0.54338 
41 53 1.44442 17.4438 13.0469 
42 53 2.60216 17.3655 14.6759 
43 53 1.5875 18.8949 15.4705 
44 53 0.429759 18.9732 13.8415 
45 53 0.167666 16.1574 13.8926 
46 53 1.32541 16.0791 15.5215 
47 53 0.310749 17.6085 16.3161 
48 53 -0.846994 17.6868 14.6871 
49 40 16.4509 1.69933 4.23066 
50 40 15.6494 2.46586 5.895 
51 40 13.8443 2.44783 5.03401 
52 40 14.6458 1.6813 3.36967 
53 40 16.1359 -0.147863 4.92971 
54 40 15.3344 0.618668 6.59405 
55 40 13.5293 0.600646 5.73307 
56 40 14.3308 -0.165885 4.06873 
57 49 3.4699 11.5669 3.75356 
58 49 3.22086 10.3289 5.30448 
59 49 1.27738 10.797 5.36605 
60 49 1.52642 12.035 3.81513 
61 49 3.0688 10.0675 2.49227 
62 49 2.81976 8.82946 4.04319 
63 49 0.876286 9.29756 4.10476 
64 49 1.12533 10.5355 2.55384 
65 52 11.5822 9.03775 2.02777 
66 52 13.2376 7.96722 2.36462 
67 52 12.759 7.83677 4.30213 
68 52 11.1036 8.90731 3.96528 
69 52 10.5671 7.35343 1.66362 
70 52 12.2225 6.2829 2.00047 
71 52 11.7439 6.15245 3.93798 
72 52 10.0885 7.22299 3.60113 
73 13 12.8047 11.8383 2.97307 
74 13 14.7639 11.4654 2.8224 
75 13 15.0934 12.5246 4.48662 
76 13 13.1343 12.8974 4.63729 
77 13 12.5742 10.1832 4.07201 
78 13 14.5334 9.81038 3.92134 
79 13 14.8629 10.8695 5.58556 
80 13 12.9038 11.2424 5.73623 
81 12 12.8031 13.6235 1.12081 
82 12 14.5614 14.1308 1.9277 
83 12 13.6083 15.0658 3.41681 
84 12 11.85 14.5585 2.60992 
85 12 12.8036 11.9299 2.18452 
86 12 14.5619 12.4371 2.99141 
87 12 13.6088 13.3721 4.48052 
88 12 11.8505 12.8648 3.67363 
89 7 14.5797 12.8175 3.94377 
90 7 14.6508 14.4375 2.77302 
91 7 16.4061 14.9471 3.58479 
92 7 16.3351 13.3272 4.75554 
93 7 15.5356 11.7611 2.54007 
94 7 15.6066 13.3811 1.36932 
95 7 17.362 13.8907 2.18109 
96 7 17.2909 12.2708 3.35185 
97 46 16.352 0.884223 9.34991 
98 46 16.861 2.56899 8.39992 
99 46 17.9788 1.51107 7.12269 
100 46 17.4698 -0.17369 8.07268 
101 46 14.7736 0.678324 8.13905 
102 46 15.2826 2.36309 7.18905 
103 46 16.4004 1.30517 5.91182 
104 46 15.8914 -0.379589 6.86181 
105 4 13.565 10.2014 7.01575 
106 4 14.3757 9.34882 5.39842 
107 4 13.5997 7.5864 5.93846 
108 4 12.7889 8.43898 7.55579 
109 4 11.9095 10.61 5.97047 
110 4 12.7203 9.75744 4.35315 
111 4 11.9443 7.99502 4.89319 
112 4 11.1335 8.8476 6.51051 
113 11 17.0416 12.2229 5.64457 
114 11 16.847 11.9093 3.67891 
115 11 18.8008 11.5015 3.55055 
116 11 18.9954 11.8151 5.5162 
117 11 16.6609 10.2902 5.99059 
118 11 16.4663 9.97659 4.02493 
119 11 18.4201 9.56876 3.89657 
120 11 18.6147 9.88235 5.86223 
121 31 3.15355 11.9699 4.37271 
122 31 4.44947 11.3989 5.78499 
123 31 5.69068 12.8697 5.24071 
124 31 4.39476 13.4407 3.82842 
125 31 2.27038 13.199 5.68007 
126 31 3.56629 12.628 7.09235 
127 31 4.8075 14.0988 6.54807 
128 31 3.51158 14.6698 5.13578 
129 23 2.46408 13.261 3.16968 
130 23 3.98794 12.4938 2.12603 
131 23 3.77312 13.9332 0.754184 
132 23 2.24926 14.7004 1.79783 
133 23 3.74146 14.4184 4.18399 
134 23 5.26532 13.6511 3.14035 
135 23 5.0505 15.0905 1.7685 
136 23 3.52664 15.8578 2.81214 
137 16 8.20707 17.1639 7.21733 
138 16 7.43967 15.685 6.11104 
139 16 7.29425 16.9276 4.5507 
140 16 8.06165 18.4065 5.657 
141 16 10.0483 16.6456 6.63299 
142 16 9.28085 15.1667 5.52669 
143 16 9.13542 16.4093 3.96635 
144 16 9.90283 17.8883 5.07265 
145 38 12.7508 15.9085 5.53246 
146 38 13.0784 16.6665 7.35405 
147 38 14.9726 16.0289 7.27871 
148 38 14.645 15.2709 5.45712 
149 38 13.303 17.646 4.71018 
150 38 13.6306 18.404 6.53176 
151 38 15.5247 17.7664 6.45643 
152 38 15.1971 17.0084 4.63484 
153 54 16.108 17.814 5.78078 
154 54 17.9846 17.1465 5.6001 
155 54 17.6636 15.8426 7.08228 
156 54 15.7869 16.5102 7.26297 
157 54 15.4955 16.4523 4.45019 
158 54 17.3721 15.7847 4.26951 
159 54 17.0511 14.4809 5.75169 
160 54 15.1744 15.1484 5.93238 
161 2 3.16258 18.1481 6.71726 
162 2 5.15521 18.0404 6.85083 
163 2 5.02803 16.0684 7.15916 
164 2 3.0354 16.1761 7.02558 
165 2 3.27769 17.8324 4.74569 
166 2 5.27032 17.7248 4.87926 
167 2 5.14314 15.7528 5.18758 
168 2 3.15051 15.8604 5.05401 
169 29 2.63408 17.044 6.30271 
170 29 1.99086 18.9317 6.15131 
171 29 0.328749 18.2923 5.24103 
172 29 0.971965 16.4047 5.39243 
173 29 1.72652 16.8771 8.0771 
174 29 1.0833 18.7648 7.9257 
175 29 -0.578807 18.1254 7.01543 
176 29 0.0644089 16.2377 7.16683 
177 45 6.37135 7.39086 7.32243 
178 45 4.96651 8.81427 7.3405 
179 45 6.18053 10.0255 6.3114 
180 45 7.58537 8.60211 6.29333 
181 45 5.62799 6.67898 5.6076 
182 45 4.22315 8.10239 5.62567 
183 45 5.43717 9.31363 4.59658 
184 45 6.84201 7.89022 4.5785 
185 27 16.2634 9.46776 7.22577 
186 27 15.8589 7.51302 7.10169 
187 27 14.8164 7.62061 8.80508 
188 27 15.2208 9.57535 8.92916 
189 27 14.6052 9.87692 6.18507 
190 27 14.2007 7.92218 6.06099 
191 27 13.1582 8.02977 7.76438 
192 27 13.5627 9.98451 7.88846 
193 5 4.96285 9.26724 7.69601 
194 5 6.78811 10.0065 7.34695 
195 5 6.08955 10.9732 5.74144 
196 5 4.26429 10.2339 6.0905 
197 5 4.53807 10.8544 8.83641 
198 5 6.36333 11.5937 8.48735 
199 5 5.66477 12.5603 6.88184 
200 5 3.83951 11.821 7.2309 
201 10 11.1373 10.8892 8.95158 
202 10 12.0347 10.5335 7.19999 
203 10 11.1359 8.74959 7.1017 
204 10 10.2385 9.10524 8.8533 
205 10 9.59238 11.7205 7.99124 
206 10 10.4898 11.3648 6.23965 
207 10 9.59104 9.58086 6.14136 
208 10 8.69358 9.93651 7.89296 
209 28 16.6279 11.3713 8.37531 
210 28 17.2653 11.8475 6.54038 
211 28 15.7224 10.8531 5.74636 
212 28 15.085 10.3768 7.5813 
213 28 15.5265 13.0399 8.42578 
214 28 16.1639 13.5161 6.59084 
215 28 14.621 12.5217 5.79683 
216 28 13.9836 12.0455 7.63177 
217 30 6.08807 13.7252 5.6073 
218 30 6.34061 11.7688 5.27785 
219 30 6.26305 12.0909 3.30549 
220 30 6.01051 14.0474 3.63493 
221 30 8.07055 13.9871 5.5721 
222 30 8.32308 12.0306 5.24266 
223 30 8.24552 12.3527 3.27029 
224 30 7.99299 14.3092 3.59973 
225 17 13.7663 12.7148 8.71591 
226 17 12.8176 10.9752 8.98756 
227 17 11.0594 11.9276 8.94646 
228 17 12.0081 13.6672 8.67481 
229 17 13.6727 12.4565 6.73487 
230 17 12.724 10.7169 7.00653 
231 17 10.9658 11.6693 6.96542 
232 17 11.9145 13.4089 6.69377 
233 35 19.1603 13.3006 7.29947 
234 35 17.5144 12.489 6.50434 
235 35 16.8434 12.0537 8.33748 
236 35 18.4894 12.8653 9.13261 
237 35 18.2434 15.0759 7.38543 
238 35 16.5975 14.2643 6.5903 
239 35 15.9265 13.8291 8.42343 
240 35 17.5724 14.6406 9.21856 
241 3 14.834 13.8086 9.5583 
242 3 13.6816 13.2222 8.03244 
243 3 12.3845 14.6863 8.44947 
244 3 13.5368 15.2726 9.97533 
245 3 15.8287 15.0386 8.33445 
246 3 14.6763 14.4522 6.80858 
247 3 13.3792 15.9162 7.22562 
248 3 14.5315 16.5026 8.75148 
249 36 1.93647 16.8436 9.44782 
250 36 2.22532 14.9733 10.0949 
251 36 0.472645 14.4279 9.30074 
252 36 0.183796 16.2981 8.65369 
253 36 2.85555 16.3912 7.73007 
254 36 3.1444 14.521 8.37712 
255 36 1.39172 13.9755 7.58298 
256 36 1.10288 15.8458 6.93593 
257 22 4.30936 4.32892 8.40086 
258 22 3.35241 2.76349 9.19689 
259 22 2.04995 4.00421 10.0711 
260 22 3.0069 5.56964 9.27504 
261 22 3.1313 4.22879 6.78775 
262 22 2.17435 2.66336 7.58378 
263 22 0.871885 3.90408 8.45796 
264 22 1.82883 5.46951 7.66193 
265 6 8.22164 7.81232 10.4835 
266 6 9.63853 8.70207 9.38772 
267 6 8.42713 10.2655 9.0908 
268 6 7.01024 9.37576 10.1866 
269 6 8.94615 8.6864 12.13 
270 6 10.363 9.57615 11.0343 
271 6 9.15164 11.1396 10.7373 
272 6 7.73474 10.2498 11.8331 
273 26 12.0639 10.541 9.87451 
274 26 13.0705 10.421 8.15046 
275 26 14.1709 8.92697 8.89691 
276 26 13.1643 9.04697 10.621 
277 26 10.7313 9.21673 9.18859 
278 26 11.7379 9.09673 7.46455 
279 26 12.8383 7.60274 8.211 
280 26 11.8316 7.72274 9.93504 
281 32 3.60488 12.667 10.8084 
282 32 2.96085 12.0246 9.02719 
283 32 2.51438 13.9045 8.51066 
284 32 3.15842 14.5468 10.2918 
285 32 5.44496 12.8983 10.0596 
286 32 4.80093 12.2559 8.27845 
287 32 4.35446 14.1358 7.76191 
288 32 4.9985 14.7781 9.54308 
289 37 14.96 14.4514 9.86907 
290 37 16.5052 14.6631 8.61709 
291 37 15.973 16.5615 8.2812 
292 37 14.4278 16.3498 9.53318 
293 37 16.1128 15.0441 11.3921 
294 37 17.658 15.2557 10.1401 
295 37 17.1258 17.1541 9.80426 
296 37 15.5806 16.9425 11.0562 
297 25 4.79377 0.914391 11.7423 
298 25 3.59777 -0.287881 12.8026 
299 25 2.29375 1.21117 13.0314 
300 25 3.48975 2.41344 11.9712 
301 25 3.8615 0.359964 10.062 
302 25 2.6655 -0.842308 11.1222 
303 25 1.36148 0.656742 11.3511 
304 25 2.55749 1.85901 10.2908 
305 24 14.8964 -1.48969 11.6977 
306 24 16.8014 -0.894951 11.5676 
307 24 16.1976 0.896183 10.9139 
308 24 14.2926 0.301442 11.0441 
309 24 14.8185 -0.827785 13.5834 
310 24 16.7236 -0.233043 13.4533 
311 24 16.1198 1.55809 12.7996 
312 24 14.2147 0.963349 12.9297 
313 43 13.4203 3.49287 13.9525 
314 43 12.161 2.4953 12.7613 
315 43 13.0054 3.34313 11.1587 
316 43 14.2647 4.3407 12.35 
317 43 14.7246 1.98091 13.8399 
318 43 13.4654 0.983334 12.6486 
319 43 14.3098 1.83117 11.0461 
320 43 15.569 2.82874 12.2374 
321 42 10.2405 0.701412 13.2927 
322 42 8.91763 0.104727 14.6689 
323 42 8.24844 1.98172 14.8395 
324 42 9.57129 2.5784 13.4633 
325 42 8.89802 0.353733 11.8516 
326 42 7.57516 -0.242952 13.2278 
327 42 6.90597 1.63404 13.3984 
328 42 8.22882 2.23072 12.0221 
329 9 1.35065 5.07855 10.8263 
330 9 1.0802 4.49032 12.7186 
331 9 0.403691 2.72261 12.0724 
332 9 0.67414 3.31084 10.1801 
333 9 3.21322 4.35109 10.8664 
334 9 2.94278 3.76286 12.7587 
335 9 2.26627 1.99515 12.1125 
336 9 2.53672 2.58338 10.2202 
337 50 16.2636 7.99948 11.2017 
338 50 15.7546 7.93189 13.1347 
339 50 15.0758 9.80975 13.0216 
340 50 15.5847 9.87733 11.0886 
341 50 14.4525 7.31458 10.7009 
342 50 13.9435 7.24699 12.6338 
343 50 13.2647 9.12485 12.5207 
344 50 13.7736 9.19243 10.5878 
345 34 7.75563 14.8741 13.0472 
346 34 8.20027 12.9404 13.2982 
347 34 8.51492 13.2656 15.2463 
348 34 8.07028 15.1993 14.9954 
349 34 5.83124 14.4805 13.4237 
350 34 6.27588 12.5467 13.6747 
351 34 6.59053 12.8719 15.6229 
352 34 6.14588 14.8057 15.3719 
353 20 14.4361 0.658767 13.5729 
354 20 15.0852 2.06127 14.8424 
355 20 13.406 3.10653 14.5462 
356 20 12.7569 1.70403 13.2767 
357 20 13.5649 -0.310979 15.0897 
358 20 14.2139 1.09152 16.3592 
359 20 12.5348 2.13679 16.063 
360 20 11.8857 0.734285 14.7934 
361 41 12.5242 5.08937 14.2214 
362 41 11.1716 6.53574 14.5016 
363 41 10.4806 5.57705 16.1151 
364 41 11.8332 4.13068 15.8349 
365 41 13.8253 6.08381 15.3695 
366 41 12.4727 7.53018 15.6496 
367 41 11.7818 6.57149 17.2632 
368 41 13.1344 5.12512 16.983 
369 47 15.1598 4.08416 13.3846 
370 47 13.8785 5.60834 13.5716 
371 47 12.8006 4.54215 14.876 
372 47 14.0819 3.01797 14.689 
373 47 16.2536 4.81907 14.8891 
374 47 14.9722 6.34326 15.0761 
375 47 13.8943 5.27706 16.3805 
376 47 15.1757 3.75288 16.1935 
377 44 16.1245 8.37903 13.1957 
378 44 15.8557 10.1891 14.0029 
379 44 15.9713 9.39018 15.8327 
380 44 16.2401 7.58015 15.0255 
381 44 18.103 8.67162 13.1984 
382 44 17.8342 10.4816 14.0056 
383 44 17.9498 9.68276 15.8355 
384 44 18.2186 7.87274 15.0283 
385 51 13.2741 11.7142 13.3159 
386 51 13.7671 11.799 15.2523 
387 51 12.0846 10.8256 15.7232 
388 51 11.5916 10.7409 13.7868 
389 51 14.2365 9.96914 13.1473 
390 51 14.7295 10.0539 15.0837 
391 51 13.047 9.08051 15.5546 
392 51 12.554 8.99576 13.6182 
393 15 13.5199 14.6974 12.5112 
394 15 13.942 14.8263 14.4619 
395 15 12.6011 13.3932 14.8468 
396 15 12.179 13.2643 12.8961 
397 15 14.9425 13.3083 12.2952 
398 15 15.3646 13.4372 14.2459 
399 15 14.0237 12.0041 14.6308 
400 15 13.6016 11.8752 12.6801 
401 1 9.00764 6.68365 0.711723 
402 1 9.32149 7.0611 -1.2271 
403 1 9.5063 9.01002 -0.817764 
404 1 9.19245 8.63257 1.12106 
405 1 10.9742 6.44025 0.982675 
406 1 11.288 6.81771 -0.956147 
407 1 11.4729 8.76663 -0.546812 
408 1 11.159 8.38918 1.39201 
409 18 17.4352 14.7696 13.6541 
410 18 18.5704 14.4758 15.2743 
411 18 16.9724 13.8049 16.2723 
412 18 15.8372 14.0987 14.6522 
413 18 17.8321 12.9086 13.0385 
414 18 18.9673 12.6148 14.6587 
415 18 17.3693 11.9438 15.6567 
416 18 16.234 12.2376 14.0366 
417 8 3.17224 14.839 13.5897 
418 8 3.1976 15.7187 15.3857 
419 8 1.21009 15.5306 15.5058 
420 8 1.18473 14.651 13.7098 
421 8 3.39395 13.0527 14.4614 
422 8 3.41931 13.9324 16.2574 
423 8 1.4318 13.7443 16.3776 
424 8 1.40644 12.8647 14.5816 
425 33 3.28383 17.9819 13.8378 
426 33 4.65292 17.9937 15.2956 
427 33 3.80558 16.3726 16.1045 
428 33 2.43649 16.3608 14.6466 
429 33 4.47025 16.8105 12.7331 
430 33 5.83934 16.8223 14.191 
431 33 4.99201 15.2013 14.9998 
432 33 3.62291 15.1895 13.5419 
