ITEM: TIMESTEP
10000
ITEM: NUMBER OF ENTRIES
432
ITEM: BOX BOUNDS pp pp pp
0 18
0 18
0 18
ITEM: ENTRIES index c_1[1] c_1[2] c_1[3] c_1[4] 
1 45 10.6298 15.9848 17.0932 
2 45 12.3811 16.1754 16.1462 
3 45 12.8048 17.7857 17.2539 
4 45 11.0536 17.5951 18.2009 
5 45 11.4979 14.8141 18.4629 
6 45 13.2491 15.0047 17.5159 
7 45 13.6729 16.6151 18.6236 
8 45 11.9217 16.4245 19.5706 
9 44 19.4459 -0.392429 3.59533 
10 44 18.3131 -1.01054 5.12328 
11 44 17.5815 0.839436 5.32928 
12 44 18.7143 1.45754 3.80133 
13 44 17.9689 -0.834628 2.32138 
14 44 16.8361 -1.45274 3.84933 
15 44 16.1045 0.397236 4.05534 
16 44 17.2373 1.01535 2.52739 
17 22 3.95674 4.90559 0.386066 
18 22 5.41837 3.61729 0.837647 
19 22 5.93388 4.75076 2.40274 
20 22 4.47225 6.03906 1.95116 
21 22 2.69267 3.8782 1.54648 
22 22 4.15429 2.5899 1.99806 
23 22 4.6698 3.72337 3.56315 
24 22 3.20817 5.01167 3.11157 
25 25 16.9321 9.93831 1.1213 
26 25 15.2385 10.1237 2.1689 
27 25 15.1581 12.0651 1.69529 
28 25 16.8516 11.8798 0.647689 
29 25 15.8712 9.49513 -0.515228 
30 25 14.1777 9.68052 0.532377 
31 25 14.0972 11.622 0.0587685 
32 25 15.7908 11.4366 -0.988837 
33 48 12.2546 11.3393 1.98283 
34 48 13.9071 11.1253 0.876764 
35 48 15.0246 11.1878 2.53427 
36 48 13.372 11.4017 3.64034 
37 48 12.1118 9.35172 2.15398 
38 48 13.7643 9.1378 1.04791 
39 48 14.8818 9.20027 2.70541 
40 48 13.2293 9.41419 3.81148 
41 12 13.8653 13.3121 2.1942 
42 12 15.8473 13.4052 2.44567 
43 12 15.5974 14.7277 3.92507 
44 12 13.6155 14.6346 3.6736 
45 12 13.7679 11.8147 3.51637 
46 12 15.7499 11.9078 3.76785 
47 12 15.5 13.2303 5.24725 
48 12 13.5181 13.1371 4.99577 
49 7 16.1073 12.6934 4.63421 
50 7 16.2032 14.1845 3.30481 
51 7 18.1863 14.2741 3.54834 
52 7 18.0904 12.7829 4.87774 
53 7 16.3484 11.3636 3.15997 
54 7 16.4443 12.8547 1.83057 
55 7 18.4274 12.9442 2.0741 
56 7 18.3315 11.4531 3.4035 
57 1 11.581 16.9168 1.84843 
58 1 13.4951 16.8169 2.41941 
59 1 12.9786 17.417 4.25601 
60 1 11.0644 17.5169 3.68503 
61 1 11.3179 15.0116 2.39696 
62 1 13.2321 14.9117 2.96794 
63 1 12.7156 15.5117 4.80454 
64 1 10.8014 15.6116 4.23356 
65 49 8.43824 2.139 6.41021 
66 49 7.98179 0.430096 5.47676 
67 49 7.06734 -0.228229 7.12915 
68 49 7.52379 1.48067 8.06259 
69 49 6.7191 2.9429 5.7791 
70 49 6.26266 1.234 4.84565 
71 49 5.3482 0.575679 6.49804 
72 49 5.80465 2.28458 7.43149 
73 34 17.9115 10.2976 2.59601 
74 34 17.9744 8.30563 2.42864 
75 34 17.9176 8.13647 4.42067 
76 34 17.8547 10.1285 4.58803 
77 34 15.9133 10.2398 2.53413 
78 34 15.9762 8.24776 2.36676 
79 34 15.9194 8.07861 4.35879 
80 34 15.8565 10.0706 4.52615 
81 13 13.8948 11.6726 4.14848 
82 13 15.7369 11.1117 3.60807 
83 13 16.5132 12.3204 4.99967 
84 13 14.6711 12.8813 5.54008 
85 13 13.8311 10.1812 5.47942 
86 13 15.6732 9.62023 4.93901 
87 13 16.4495 10.8289 6.33061 
88 13 14.6074 11.3898 6.87102 
89 40 2.2005 15.343 6.03577 
90 40 0.882292 16.4083 4.97402 
91 40 0.944024 15.036 3.52041 
92 40 2.26223 13.9707 4.58216 
93 40 0.697661 14.3521 6.90738 
94 40 -0.620545 15.4175 5.84562 
95 40 -0.558814 14.0452 4.39201 
96 40 0.759393 12.9798 5.45377 
97 33 1.37282 6.24716 1.99846 
98 33 3.00899 5.44179 2.81963 
99 33 2.37077 5.99398 4.63284 
100 33 0.734601 6.79935 3.81168 
101 33 0.415939 4.50175 2.1932 
102 33 2.05211 3.69638 3.01437 
103 33 1.41389 4.24857 4.82758 
104 33 -0.222281 5.05394 4.00641 
105 9 14.971 3.77232 8.46458 
106 9 16.226 2.78383 7.26123 
107 9 14.6725 1.88123 6.38261 
108 9 13.4175 2.86972 7.58596 
109 9 14.8622 5.25832 7.13043 
110 9 16.1171 4.26982 5.92708 
111 9 14.5636 3.36722 5.04846 
112 9 13.3087 4.35572 6.25181 
113 42 0.761648 5.85603 5.60726 
114 42 2.08659 6.89568 6.68598 
115 42 0.881184 6.78029 8.27774 
116 42 -0.443762 5.74064 7.19901 
117 42 1.65131 4.15138 6.15742 
118 42 2.97626 5.19103 7.23615 
119 42 1.77085 5.07565 8.8279 
120 42 0.445904 4.036 7.74917 
121 4 16.4086 6.84778 8.6709 
122 4 15.1959 8.3846 9.08009 
123 4 14.1381 7.98944 7.42932 
124 4 15.3509 6.45262 7.02014 
125 4 15.221 5.63039 9.7233 
126 4 14.0083 7.16721 10.1325 
127 4 12.9505 6.77205 8.48172 
128 4 14.1633 5.23523 8.07253 
129 27 17.6325 8.96248 7.74303 
130 27 16.4349 8.77916 6.15179 
131 27 17.4757 7.17982 5.5527 
132 27 18.6733 7.36314 7.14394 
133 27 16.415 7.77568 8.79614 
134 27 15.2173 7.59236 7.2049 
135 27 16.2581 5.99302 6.60582 
136 27 17.4558 6.17633 8.19706 
137 31 8.37018 16.9575 6.95616 
138 31 10.3655 17.0273 7.07288 
139 31 10.3067 15.9231 8.73941 
140 31 8.31131 15.8533 8.62269 
141 31 8.49276 15.2914 5.85659 
142 31 10.4881 15.3612 5.97331 
143 31 10.4293 14.257 7.63984 
144 31 8.43389 14.1872 7.52312 
145 5 14.0084 14.4634 5.3141 
146 5 13.0936 15.136 6.96055 
147 5 11.3984 14.2462 6.38214 
148 5 12.3132 13.5736 4.73569 
149 5 14.5464 12.8033 6.29117 
150 5 13.6316 13.4759 7.93761 
151 5 11.9364 12.5861 7.3592 
152 5 12.8513 11.9135 5.71276 
153 38 16.2141 12.2376 5.9486 
154 38 15.4839 13.9612 6.65275 
155 38 16.5864 13.752 8.30826 
156 38 17.3166 12.0283 7.60411 
157 38 17.7146 13.2302 5.07483 
158 38 16.9844 14.9538 5.77898 
159 38 18.0869 14.7446 7.43449 
160 38 18.8171 13.0209 6.73034 
161 11 4.56174 -0.0922792 7.59096 
162 11 3.46753 0.754761 9.03499 
163 11 4.04559 2.56494 8.4112 
164 11 5.1398 1.7179 6.96717 
165 11 2.99058 -0.01619 6.35578 
166 11 1.89637 0.83085 7.79981 
167 11 2.47443 2.64103 7.17602 
168 11 3.56864 1.79399 5.73199 
169 46 16.1954 16.8573 7.8 
170 46 17.1496 17.9698 6.43918 
171 46 18.76 18.037 7.62328 
172 46 17.8058 16.9245 8.98411 
173 46 16.8998 15.1966 6.93625 
174 46 17.854 16.3092 5.57543 
175 46 19.4644 16.3764 6.75954 
176 46 18.5102 15.2638 8.12036 
177 52 7.40664 1.31441 9.65998 
178 52 7.25589 -0.614748 9.15439 
179 52 5.75831 -0.840084 10.4607 
180 52 5.90906 1.08907 10.9663 
181 52 6.08962 1.79146 8.23243 
182 52 5.93887 -0.1377 7.72684 
183 52 4.44129 -0.363036 9.03316 
184 52 4.59204 1.56612 9.53875 
185 53 16.3656 -0.00686931 6.40042 
186 53 17.8799 0.997003 7.23651 
187 53 16.6533 2.53016 7.61725 
188 53 15.139 1.52629 6.78116 
189 53 15.9157 -0.807906 8.17694 
190 53 17.4301 0.195966 9.01303 
191 53 16.2035 1.72913 9.39376 
192 53 14.6892 0.725254 8.55767 
193 50 5.76028 2.1667 8.76199 
194 50 4.36137 3.11102 7.689 
195 50 4.82235 4.83023 8.60104 
196 50 6.22126 3.88591 9.67403 
197 50 7.11326 2.55731 7.34183 
198 50 5.71434 3.50163 6.26883 
199 50 6.17532 5.22084 7.18087 
200 50 7.57424 4.27652 8.25386 
201 32 13.2019 11.044 8.50198 
202 32 13.3876 9.24101 7.6565 
203 32 15.091 8.94499 8.66192 
204 32 14.9053 10.748 9.5074 
205 32 12.1704 10.2305 10.0101 
206 32 12.3561 8.42757 9.16458 
207 32 14.0595 8.13155 10.17 
208 32 13.8738 9.93452 11.0155 
209 28 18.641 8.8841 10.3433 
210 28 19.6308 10.0178 9.02613 
211 28 18.3829 9.42635 7.57939 
212 28 17.3931 8.29265 8.89659 
213 28 17.4314 10.4219 10.758 
214 28 18.4212 11.5556 9.44076 
215 28 17.1733 10.9642 7.99402 
216 28 16.1835 9.83048 9.31122 
217 54 1.06702 14.4317 7.29697 
218 54 2.24236 14.2669 8.90676 
219 54 0.6595 13.7362 10.0081 
220 54 -0.515831 13.901 8.3983 
221 54 1.40343 12.5105 6.85467 
222 54 2.57876 12.3457 8.46446 
223 54 0.995901 11.815 9.56579 
224 54 -0.17943 11.9798 7.956 
225 3 16.11 12.3464 10.4615 
226 3 16.4422 10.63 9.49007 
227 3 14.6413 10.7677 8.63097 
228 3 14.3092 12.4841 9.60238 
229 3 16.9142 13.3637 8.93889 
230 3 17.2463 11.6473 7.96748 
231 3 15.4455 11.7851 7.10837 
232 3 15.1134 13.5015 8.07979 
233 39 12.4509 15.4369 9.50933 
234 39 10.6729 15.0941 8.66009 
235 39 11.5887 14.4172 7.01596 
236 39 13.3667 14.7601 7.8652 
237 39 12.4453 13.5865 10.268 
238 39 10.6673 13.2436 9.4188 
239 39 11.5832 12.5667 7.77467 
240 39 13.3611 12.9096 8.62391 
241 16 4.07341 0.325 11.1979 
242 16 4.20552 0.158651 13.1866 
243 16 2.6726 1.42631 13.3944 
244 16 2.54049 1.59266 11.4058 
245 16 2.79564 -1.21298 11.1541 
246 16 2.92774 -1.37933 13.1428 
247 16 1.39483 -0.111672 13.3507 
248 16 1.26272 0.0546773 11.362 
249 43 6.21424 16.8895 14.3454 
250 43 5.20993 16.6133 12.638 
251 43 4.60176 18.5179 12.6877 
252 43 5.60606 18.7941 14.395 
253 43 7.83334 17.4336 13.305 
254 43 6.82904 17.1574 11.5976 
255 43 6.22087 19.062 11.6473 
256 43 7.22517 19.3382 13.3546 
257 10 16.2119 6.44158 13.2016 
258 10 15.908 4.62855 12.4139 
259 10 14.7948 4.12692 13.9979 
260 10 15.0987 5.93995 14.7856 
261 10 14.5784 7.12076 12.2687 
262 10 14.2744 5.30772 11.481 
263 10 13.1612 4.8061 13.065 
264 10 13.4652 6.61913 13.8527 
265 26 0.986921 6.90883 11.0272 
266 26 -0.761057 6.20704 10.3549 
267 26 0.0490026 5.9195 8.54901 
268 26 1.79698 6.6213 9.22137 
269 26 1.52393 5.0582 11.5628 
270 26 -0.224052 4.35641 10.8904 
271 26 0.586008 4.06888 9.08456 
272 26 2.33399 4.77067 9.75691 
273 17 16.112 9.39244 11.0813 
274 17 17.2729 7.77257 11.25 
275 17 16.1629 7.13728 12.7877 
276 17 15.0021 8.75714 12.619 
277 17 14.9202 8.40631 9.81363 
278 17 16.0811 6.78644 9.98233 
279 17 14.9711 6.15115 11.52 
280 17 13.8103 7.77101 11.3513 
281 35 3.11258 11.1346 10.7429 
282 35 1.86824 10.5351 9.29646 
283 35 1.2041 9.064 10.4774 
284 35 2.44843 9.66343 11.9239 
285 35 1.69464 12.3497 11.4592 
286 35 0.450306 11.7502 10.0127 
287 35 -0.213837 10.2791 11.1937 
288 35 1.0305 10.8785 12.6402 
289 18 16.4457 8.36264 12.347 
290 18 15.2062 9.93038 12.2715 
291 18 16.0443 10.673 13.9286 
292 18 17.2839 9.10523 14.0041 
293 18 17.7727 9.35802 11.2297 
294 18 16.5332 10.9258 11.1542 
295 18 17.3713 11.6683 12.8113 
296 18 18.6109 10.1006 12.8869 
297 36 2.38742 13.3913 13.8495 
298 36 3.105 11.5356 14.0531 
299 36 1.86687 10.8992 12.6171 
300 36 1.14929 12.7549 12.4135 
301 36 3.7846 13.7805 12.4724 
302 36 4.50218 11.9248 12.676 
303 36 3.26405 11.2884 11.24 
304 36 2.54646 13.1441 11.0364 
305 29 2.86454 13.8666 11.6472 
306 29 3.66872 15.4339 10.7002 
307 29 2.54599 15.0389 9.09294 
308 29 1.74181 13.4715 10.0399 
309 29 1.4179 15.0444 12.3682 
310 29 2.22207 16.6118 11.4212 
311 29 1.09935 16.2167 9.81394 
312 29 0.295168 14.6494 10.7609 
313 2 8.06379 14.2936 10.7767 
314 2 7.76982 15.579 12.2805 
315 2 7.31229 17.0139 10.9646 
316 2 7.60626 15.7286 9.4608 
317 2 6.13915 13.7562 10.8598 
318 2 5.84518 15.0416 12.3637 
319 2 5.38765 16.4765 11.0477 
320 2 5.68162 15.1911 9.54393 
321 24 12.1471 14.6909 10.4966 
322 24 14.1077 15.0844 10.4647 
323 24 14.0028 15.7595 12.3444 
324 24 12.0422 15.366 12.3763 
325 24 12.5277 12.8499 11.1791 
326 24 14.4883 13.2434 11.1471 
327 24 14.3835 13.9185 13.0268 
328 24 12.4228 13.525 13.0587 
329 37 16.2341 12.8542 10.6195 
330 37 17.8154 13.7494 9.7838 
331 37 16.6613 14.3818 8.27776 
332 37 15.0801 13.4867 9.1135 
333 37 15.8244 14.5272 11.6361 
334 37 17.4056 15.4223 10.8004 
335 37 16.2516 16.0548 9.29431 
336 37 14.6703 15.1597 10.1301 
337 8 18.9723 17.412 10.9238 
338 8 18.1127 17.7796 9.15576 
339 8 16.9109 16.2016 9.41193 
340 8 17.7705 15.834 11.18 
341 8 17.6244 18.5845 11.8229 
342 8 16.7648 18.9521 10.0548 
343 8 15.563 17.3741 10.311 
344 8 16.4226 17.0065 12.0791 
345 21 10.4776 8.45876 11.3684 
346 21 8.74102 7.67026 11.9704 
347 21 9.54614 5.84095 11.8969 
348 21 11.2827 6.62945 11.2949 
349 21 11.0573 8.63732 13.2742 
350 21 9.32068 7.84882 13.8762 
351 21 10.1258 6.0195 13.8027 
352 21 11.8624 6.808 13.2007 
353 23 0.86609 13.7172 15.391 
354 23 -0.133092 15.3727 14.8802 
355 23 1.59939 16.3234 14.5725 
356 23 2.59857 14.6679 15.0833 
357 23 0.854243 13.121 13.4819 
358 23 -0.144939 14.7765 12.9711 
359 23 1.58754 15.7272 12.6635 
360 23 2.58673 14.0717 13.1743 
361 20 7.80978 16.9172 12.7554 
362 20 8.05665 16.9354 14.7401 
363 20 6.16462 16.3336 14.9809 
364 20 5.91775 16.3154 12.9963 
365 20 8.40918 15.01 12.6984 
366 20 8.65604 15.0282 14.683 
367 20 6.76401 14.4264 14.9239 
368 20 6.51715 14.4081 12.9393 
369 19 12.486 15.5291 11.0402 
370 19 10.9006 15.6225 12.2558 
371 19 12.0567 16.3706 13.7062 
372 19 13.6421 16.2772 12.4907 
373 19 12.0991 17.3816 10.3932 
374 19 10.5137 17.475 11.6088 
375 19 11.6698 18.223 13.0592 
376 19 13.2552 18.1296 11.8437 
377 47 6.90116 1.1942 14.577 
378 47 8.38995 1.63803 15.8366 
379 47 8.97675 -0.273845 15.8167 
380 47 7.48796 -0.717679 14.5571 
381 47 8.1008 1.57857 13.0236 
382 47 9.5896 2.0224 14.2832 
383 47 10.1764 0.110528 14.2633 
384 47 8.6876 -0.333305 13.0037 
385 51 19.215 11.0686 15.0513 
386 51 17.4938 10.7896 16.0309 
387 51 17.1755 12.7641 16.034 
388 51 18.8968 13.0431 15.0545 
389 51 18.2475 10.9154 13.3076 
390 51 16.5263 10.6364 14.2872 
391 51 16.208 12.6109 14.2903 
392 51 17.9293 12.8899 13.3108 
393 30 11.1845 15.7999 14.4227 
394 30 10.598 17.7088 14.3121 
395 30 10.2119 17.4773 12.3634 
396 30 10.7983 15.5684 12.474 
397 30 9.31181 15.2499 14.8592 
398 30 8.72536 17.1588 14.7486 
399 30 8.33918 16.9272 12.7999 
400 30 8.92563 15.0183 12.9105 
401 14 9.2553 5.81413 14.8432 
402 14 10.968 5.86023 13.8115 
403 14 11.2162 7.7813 14.3094 
404 14 9.5035 7.7352 15.3411 
405 14 10.2578 5.25973 16.4826 
406 14 11.9705 5.30582 15.4509 
407 14 12.2187 7.2269 15.9488 
408 14 10.506 7.1808 16.9805 
409 41 9.16913 1.41441 16.7446 
410 41 10.9333 2.35655 16.7286 
411 41 11.5564 1.21542 18.2483 
412 41 9.79232 0.27327 18.2643 
413 41 9.87591 0.0689863 15.4445 
414 41 11.64 1.01113 15.4285 
415 41 12.2632 -0.130008 16.9482 
416 41 10.4991 -1.07215 16.9642 
417 15 5.41177 7.77828 -1.3842 
418 15 3.66713 8.19436 -0.499262 
419 15 3.26949 6.23897 -0.363822 
420 15 5.01413 5.82289 -1.24876 
421 15 6.30515 7.72048 0.404243 
422 15 4.56051 8.13656 1.28918 
423 15 4.16287 6.18117 1.42462 
424 15 5.90751 5.7651 0.539683 
425 6 7.06574 8.19748 1.5924 
426 6 7.35983 7.44008 -0.235129 
427 6 5.79472 8.48103 -0.918398 
428 6 5.50064 9.23843 0.90913 
429 6 8.27568 9.72808 1.15276 
430 6 8.56977 8.97068 -0.674771 
431 6 7.00466 10.0116 -1.35804 
432 6 6.71058 10.769 0.469489 
