ITEM: TIMESTEP
1000
ITEM: NUMBER OF ENTRIES
432
ITEM: BOX BOUNDS pp pp pp
0 18
0 18
0 18
ITEM: ENTRIES index c_1[1] c_1[2] c_1[3] c_1[4] 
1 11 15.2897 8.32228 2.43243 
2 11 15.2897 6.32228 2.43243 
3 11 13.2897 6.32228 2.43243 
4 11 13.2897 8.32228 2.43243 
5 11 15.2897 8.32228 0.432425 
6 11 15.2897 6.32228 0.432425 
7 11 13.2897 6.32228 0.432425 
8 11 13.2897 8.32228 0.432425 
9 15 7.17835 11.658 1.17205 
10 15 7.1771 9.65798 1.17144 
11 15 5.1771 9.65923 1.17208 
12 15 5.17835 11.6592 1.17269 
13 15 7.17771 11.6586 -0.82795 
14 15 7.17646 9.65859 -0.828564 
15 15 5.17646 9.65985 -0.827921 
16 15 5.17771 11.6598 -0.827308 
17 54 16.7427 17.2586 1.03187 
18 54 17.0649 15.3171 1.38796 
19 54 15.092 15.0113 1.50589 
20 54 14.7698 16.9528 1.1498 
21 54 16.6827 16.8883 -0.932636 
22 54 17.0049 14.9468 -0.576543 
23 54 15.0319 14.6411 -0.458613 
24 54 14.7097 16.5825 -0.814706 
25 3 10.2468 1.49411 3.0772 
26 3 10.2498 -0.505884 3.07265 
27 3 8.24979 -0.508894 3.07309 
28 3 8.24678 1.4911 3.07765 
29 3 10.2463 1.49866 1.07721 
30 3 10.2493 -0.501334 1.07266 
31 3 8.24934 -0.504344 1.0731 
32 3 8.24633 1.49565 1.07765 
33 5 15.5731 4.17096 3.94053 
34 5 15.5731 2.17096 3.94053 
35 5 13.5731 2.17096 3.94053 
36 5 13.5731 4.17096 3.94053 
37 5 15.5731 4.17096 1.94053 
38 5 15.5731 2.17096 1.94053 
39 5 13.5731 2.17096 1.94053 
40 5 13.5731 4.17096 1.94053 
41 7 1.92856 9.95274 2.88866 
42 7 2.10542 7.97291 3.10998 
43 7 0.138022 7.83426 3.44182 
44 7 -0.0388361 9.81409 3.2205 
45 7 1.61541 9.70569 0.928841 
46 7 1.79227 7.72585 1.15016 
47 7 -0.175128 7.5872 1.482 
48 7 -0.351986 9.56703 1.26068 
49 8 4.60877 12.548 4.1929 
50 8 4.6183 10.5645 4.44857 
51 8 2.63552 10.5886 4.70934 
52 8 2.62599 12.5721 4.45367 
53 8 4.34707 12.2933 2.22652 
54 8 4.3566 10.3098 2.4822 
55 8 2.37382 10.3338 2.74297 
56 8 2.36429 12.3174 2.48729 
57 13 17.3387 12.0825 3.40664 
58 13 17.5118 10.0906 3.4566 
59 13 15.5194 9.91807 3.48031 
60 13 15.3463 11.9099 3.43035 
61 13 17.3194 12.0307 1.4074 
62 13 17.4925 10.0388 1.45736 
63 13 15.5001 9.86625 1.48107 
64 13 15.327 11.8581 1.43111 
65 17 13.6825 14.6087 3.4853 
66 17 13.6825 12.6087 3.4853 
67 17 11.6825 12.6087 3.4853 
68 17 11.6825 14.6087 3.4853 
69 17 13.6825 14.6087 1.4853 
70 17 13.6825 12.6087 1.4853 
71 17 11.6825 12.6087 1.4853 
72 17 11.6825 14.6087 1.4853 
73 18 18.3713 15.9745 4.51902 
74 18 18.3713 13.9745 4.51902 
75 18 16.3713 13.9745 4.51902 
76 18 16.3713 15.9745 4.51902 
77 18 18.3713 15.9745 2.51902 
78 18 18.3713 13.9745 2.51902 
79 18 16.3713 13.9745 2.51902 
80 18 16.3713 15.9745 2.51902 
81 19 0.779091 2.58346 6.82948 
82 19 0.113287 0.968321 5.85582 
83 19 -1.53475 1.96861 5.32346 
84 19 -0.868947 3.58375 6.29713 
85 19 1.69598 3.20856 5.16557 
86 19 1.03017 1.59342 4.19191 
87 19 -0.617867 2.5937 3.65956 
88 19 0.0479371 4.20884 4.63322 
89 2 3.57887 4.42117 7.4782 
90 2 3.57689 2.51236 6.88118 
91 2 1.75623 2.76117 6.0917 
92 2 1.75821 4.66999 6.68871 
93 2 4.40663 4.96387 5.7403 
94 2 4.40465 3.05506 5.14328 
95 2 2.58399 3.30387 4.3538 
96 2 2.58596 5.21268 4.95082 
97 6 18.7903 5.92934 6.67716 
98 6 18.5847 4.15186 5.78369 
99 6 16.6091 4.44008 5.66485 
100 6 16.8147 6.21756 6.55832 
101 6 19.0246 6.79967 4.89177 
102 6 18.8191 5.02219 3.99831 
103 6 16.8435 5.31041 3.87946 
104 6 17.0491 7.0879 4.77293 
105 4 10.9776 7.28813 5.6389 
106 4 10.977 5.28947 5.56556 
107 4 8.97752 5.2884 5.61187 
108 4 8.97815 7.28706 5.68522 
109 4 10.9313 7.36147 3.64078 
110 4 10.9307 5.36281 3.56744 
111 4 8.93119 5.36174 3.61376 
112 4 8.93183 7.3604 3.6871 
113 10 10.1034 11.1741 5.72953 
114 10 10.1034 9.17412 5.72953 
115 10 8.10335 9.17412 5.72953 
116 10 8.10335 11.1741 5.72953 
117 10 10.1034 11.1741 3.72953 
118 10 10.1034 9.17412 3.72953 
119 10 8.10335 9.17412 3.72953 
120 10 8.10335 11.1741 3.72953 
121 12 16.576 12.3785 6.11166 
122 12 16.0853 10.5006 6.59409 
123 12 14.1465 10.9703 6.45 
124 12 14.6373 12.8482 5.96757 
125 12 16.598 11.8755 4.17607 
126 12 16.1073 9.99764 4.6585 
127 12 14.1685 10.4673 4.51442 
128 12 14.6593 12.3452 4.03198 
129 33 7.56605 14.5801 6.81695 
130 33 7.45296 12.604 6.52954 
131 33 5.48507 12.7631 6.21001 
132 33 5.59816 14.7391 6.49742 
133 33 7.90461 14.8448 4.86367 
134 33 7.79152 12.8688 4.57626 
135 33 5.82363 13.0279 4.25673 
136 33 5.93672 15.0039 4.54414 
137 16 10.3689 16.6424 5.20648 
138 16 10.386 14.6488 5.04796 
139 16 8.38812 14.639 4.95595 
140 16 8.37108 16.6326 5.11447 
141 16 10.4599 16.8015 3.2149 
142 16 10.4769 14.8079 3.05637 
143 16 8.47906 14.7981 2.96436 
144 16 8.46202 16.7918 3.12289 
145 14 5.19692 17.268 5.64846 
146 14 5.42589 15.5061 4.73021 
147 14 3.4722 15.4746 4.30348 
148 14 3.24323 17.2365 5.22173 
149 14 5.55839 18.2138 3.92372 
150 14 5.78736 16.4519 3.00547 
151 14 3.83367 16.4204 2.57874 
152 14 3.6047 18.1823 3.49699 
153 21 6.22956 1.59919 7.96022 
154 21 6.32119 -0.388681 7.76031 
155 21 4.3288 -0.464749 7.60348 
156 21 4.23717 1.52312 7.8034 
157 21 6.37783 1.80553 5.97643 
158 21 6.46946 -0.182343 5.77651 
159 21 4.47707 -0.258411 5.61969 
160 21 4.38544 1.72946 5.8196 
161 23 13.0812 1.89912 8.13235 
162 23 13.0812 -0.100879 8.13235 
163 23 11.0812 -0.100879 8.13235 
164 23 11.0812 1.89912 8.13235 
165 23 13.0812 1.89912 6.13235 
166 23 13.0812 -0.100879 6.13235 
167 23 11.0812 -0.100879 6.13235 
168 23 11.0812 1.89912 6.13235 
169 29 16.3035 5.48888 8.23376 
170 29 16.565 3.55403 7.8002 
171 29 14.5848 3.27683 7.8428 
172 29 14.3232 5.21167 8.27636 
173 29 16.2022 5.91258 6.28178 
174 29 16.4637 3.97774 5.84822 
175 29 14.4835 3.70053 5.89082 
176 29 14.2219 5.63538 6.32438 
177 27 10.3726 8.20714 8.22494 
178 27 10.3737 6.20849 8.15133 
179 27 8.37435 6.20553 8.20172 
180 27 8.37325 8.20417 8.27533 
181 27 10.3221 8.28069 6.22693 
182 27 10.3233 6.28205 6.15332 
183 27 8.32389 6.27908 6.20371 
184 27 8.32278 8.27773 6.27732 
185 28 12.9088 11.3397 8.74372 
186 28 13.9573 9.75752 8.11331 
187 28 12.2546 8.76685 7.76768 
188 28 11.2061 10.349 8.39808 
189 28 12.87 12.0576 6.8774 
190 28 13.9185 10.4754 6.247 
191 28 12.2158 9.48474 5.90136 
192 28 11.1673 11.0669 6.53177 
193 31 2.92537 14.6903 8.9213 
194 31 2.7094 12.7227 8.63522 
195 31 0.723184 12.9493 8.5755 
196 31 0.939157 14.917 8.86158 
197 31 3.01655 14.9679 6.94277 
198 31 2.80058 13.0003 6.65669 
199 31 0.814367 13.227 6.59697 
200 31 1.03034 15.1946 6.88305 
201 35 15.2149 13.5279 9.22717 
202 35 15.3569 11.6976 8.43365 
203 35 13.362 11.5646 8.38331 
204 35 13.2199 13.395 9.17684 
205 35 15.2082 14.323 7.39202 
206 35 15.3502 12.4927 6.5985 
207 35 13.3553 12.3597 6.54816 
208 35 13.2132 14.1901 7.34169 
209 25 2.66408 5.93091 9.58843 
210 25 2.28439 4.1329 8.79912 
211 25 0.330805 4.56 8.76597 
212 25 0.710495 6.358 9.55528 
213 25 2.86244 6.69561 7.75107 
214 25 2.48275 4.89761 6.96176 
215 25 0.529161 5.3247 6.92861 
216 25 0.908852 7.12271 7.71792 
217 26 7.57627 10.8715 9.04528 
218 26 7.57627 8.87149 9.04528 
219 26 5.57627 8.87149 9.04528 
220 26 5.57627 10.8715 9.04528 
221 26 7.57627 10.8715 7.04528 
222 26 7.57627 8.87149 7.04528 
223 26 5.57627 8.87149 7.04528 
224 26 5.57627 10.8715 7.04528 
225 30 18.1249 12.4939 9.88904 
226 30 18.7367 10.6234 10.2455 
227 30 16.8385 10.054 10.5152 
228 30 16.2267 11.9244 10.1587 
229 30 17.9742 12.0731 7.93963 
230 30 18.586 10.2026 8.2961 
231 30 16.6878 9.63315 8.56577 
232 30 16.076 11.5036 8.2093 
233 36 18.1212 17.6618 10.5855 
234 36 18.1212 15.6618 10.5855 
235 36 16.1212 15.6618 10.5855 
236 36 16.1212 17.6618 10.5855 
237 36 18.1212 17.6618 8.58548 
238 36 18.1212 15.6618 8.58548 
239 36 16.1212 15.6618 8.58548 
240 36 16.1212 17.6618 8.58548 
241 34 10.4513 1.58972 11.9454 
242 34 10.408 -0.409789 11.9349 
243 34 8.42426 -0.368172 12.1858 
244 34 8.46753 1.63133 12.1962 
245 34 10.2007 1.60553 9.9612 
246 34 10.1575 -0.393971 9.95072 
247 34 8.17368 -0.352354 10.2016 
248 34 8.21695 1.64715 10.2121 
249 24 1.13583 3.87077 11.9334 
250 24 0.618013 2.11133 11.1358 
251 24 -1.04459 2.93772 10.3923 
252 24 -0.526774 4.69716 11.1899 
253 24 2.11951 4.34135 10.2568 
254 24 1.60169 2.5819 9.4592 
255 24 -0.0609108 3.40829 8.71568 
256 24 0.456904 5.16774 9.51332 
257 22 9.56681 4.10888 10.9908 
258 22 9.5384 2.10948 11.0305 
259 22 7.53861 2.13799 11.0354 
260 22 7.56702 4.13739 10.9957 
261 22 9.56137 4.06927 8.99123 
262 22 9.53296 2.06987 9.03092 
263 22 7.53317 2.09838 9.0358 
264 22 7.56158 4.09778 8.99611 
265 20 3.48598 5.72968 12.8634 
266 20 3.51241 3.74967 13.1442 
267 20 1.72303 3.60085 12.2632 
268 20 1.6966 5.58086 11.9824 
269 20 4.37898 5.49009 11.0899 
270 20 4.40541 3.51008 11.3707 
271 20 2.61603 3.36126 10.4898 
272 20 2.5896 5.34127 10.209 
273 32 5.19994 16.1867 11.6164 
274 32 5.06325 14.2034 11.3981 
275 32 3.06965 14.3482 11.3305 
276 32 3.20634 16.3316 11.5488 
277 32 5.28282 16.3997 9.62952 
278 32 5.14612 14.4164 9.41121 
279 32 3.15252 14.5612 9.34359 
280 32 3.28922 16.5445 9.5619 
281 53 10.4662 15.1669 11.607 
282 53 10.4662 13.1669 11.607 
283 53 8.46623 13.1669 11.607 
284 53 8.46623 15.1669 11.607 
285 53 10.4662 15.1669 9.60702 
286 53 10.4662 13.1669 9.60702 
287 53 8.46623 13.1669 9.60702 
288 53 8.46623 15.1669 9.60702 
289 37 18.1351 1.16671 13.594 
290 37 17.0984 -0.3497 12.8029 
291 37 15.6669 0.92581 12.2338 
292 37 16.7036 2.44222 13.0249 
293 37 19.0711 1.43796 11.8475 
294 37 18.0345 -0.0784528 11.0564 
295 37 16.603 1.19706 10.4873 
296 37 17.6396 2.71347 11.2784 
297 41 14.769 3.51343 14.6272 
298 41 14.3359 1.56089 14.6304 
299 41 12.4385 1.98254 15.1016 
300 41 12.8716 3.93508 15.0984 
301 41 14.3083 3.61243 12.6835 
302 41 13.8752 1.65989 12.6867 
303 41 11.9778 2.08154 13.1579 
304 41 12.4109 4.03408 13.1547 
305 47 15.559 7.59667 14.7527 
306 47 15.5582 5.59667 14.7526 
307 47 13.5582 5.59745 14.7501 
308 47 13.559 7.59745 14.7502 
309 47 15.5615 7.59676 12.7527 
310 47 15.5607 5.59676 12.7526 
311 47 13.5607 5.59754 12.7501 
312 47 13.5615 7.59754 12.7502 
313 43 18.1152 7.32682 13.3232 
314 43 18.4271 5.35137 13.3407 
315 43 16.4831 5.04129 12.9881 
316 43 16.1711 7.01674 12.9705 
317 43 18.4663 7.36476 11.3546 
318 43 18.7782 5.38931 11.3722 
319 43 16.8341 5.07922 11.0195 
320 43 16.5222 7.05467 11.0019 
321 45 8.40502 10.629 13.7792 
322 45 8.40502 8.62897 13.7792 
323 45 6.40502 8.62897 13.7792 
324 45 6.40502 10.629 13.7792 
325 45 8.40502 10.629 11.7792 
326 45 8.40502 8.62897 11.7792 
327 45 6.40502 8.62897 11.7792 
328 45 6.40502 10.629 11.7792 
329 51 8.9319 16.6943 14.648 
330 51 7.69828 15.5175 13.6025 
331 51 6.14896 16.6605 14.144 
332 51 7.38259 17.8373 15.1895 
333 51 9.21082 17.8382 13.0314 
334 51 7.9772 16.6614 11.9858 
335 51 6.42789 17.8044 12.5273 
336 51 7.66151 18.9812 13.5728 
337 39 10.9659 0.0888541 16.8164 
338 39 9.63046 -1.38429 16.601 
339 39 8.14254 -0.0536734 16.7257 
340 39 9.478 1.41947 16.9411 
341 39 11.0174 0.332337 14.8319 
342 39 9.6819 -1.14081 14.6165 
343 39 8.19398 0.18981 14.7412 
344 39 9.52944 1.66296 14.9566 
345 42 17.7548 3.11617 15.7933 
346 42 17.2119 1.23985 15.3635 
347 42 15.3507 1.63751 15.9782 
348 42 15.8936 3.51383 16.408 
349 42 17.2635 3.683 13.9393 
350 42 16.7206 1.80669 13.5095 
351 42 14.8595 2.20435 14.1242 
352 42 15.4023 4.08066 14.554 
353 44 4.4192 11.3954 16.8635 
354 44 4.41982 9.39542 16.8638 
355 44 2.41982 9.39481 16.8645 
356 44 2.4192 11.3948 16.8642 
357 44 4.41856 11.3951 14.8635 
358 44 4.41917 9.39513 14.8638 
359 44 2.41918 9.39451 14.8645 
360 44 2.41856 11.3945 14.8642 
361 50 6.14382 16.0393 16.5516 
362 50 6.35774 14.0597 16.3639 
363 50 4.36982 13.8421 16.3928 
364 50 4.1559 15.8218 16.5806 
365 50 6.09471 16.2228 14.5607 
366 50 6.30863 14.2432 14.3729 
367 50 4.32071 14.0256 14.4019 
368 50 4.10679 16.0053 14.5896 
369 49 1.73635 17.6133 16.0768 
370 49 1.73379 15.6133 16.0767 
371 49 -0.266208 15.6159 16.0807 
372 49 -0.263641 17.6159 16.0807 
373 49 1.73238 17.6134 14.0768 
374 49 1.72982 15.6134 14.0767 
375 49 -0.270177 15.616 14.0807 
376 49 -0.26761 17.616 14.0807 
377 1 16.897 1.73926 18.4231 
378 1 17.2182 -0.202316 18.7797 
379 1 15.2454 -0.505549 18.9059 
380 1 14.9241 1.43602 18.5494 
381 1 16.8285 1.3673 16.4592 
382 1 17.1497 -0.574271 16.8157 
383 1 15.1769 -0.877504 16.942 
384 1 14.8556 1.06407 16.5854 
385 38 8.27897 3.55065 17.4561 
386 38 9.11121 1.73368 17.5336 
387 38 7.31691 0.927222 17.8943 
388 38 6.48468 2.74419 17.8168 
389 38 7.98249 3.331 15.4904 
390 38 8.81472 1.51403 15.5679 
391 38 7.02043 0.707575 15.9287 
392 38 6.18819 2.52454 15.8512 
393 40 10.1469 5.36746 16.9522 
394 40 10.9946 3.57575 17.219 
395 40 9.19637 2.77887 17.5813 
396 40 8.34865 4.57058 17.3145 
397 40 9.92862 4.97407 15.0035 
398 40 10.7763 3.18236 15.2702 
399 40 8.97808 2.38548 15.6325 
400 40 8.13036 4.17719 15.3658 
401 9 8.15141 7.26322 18.4296 
402 9 8.1318 5.26343 18.4512 
403 9 6.13191 5.28297 18.4448 
404 9 6.15152 7.28276 18.4232 
405 9 8.15757 7.24154 16.4297 
406 9 8.13796 5.24176 16.4513 
407 9 6.13806 5.2613 16.445 
408 9 6.15767 7.26109 16.4234 
409 46 11.8628 9.79572 18.3136 
410 46 11.8628 7.79572 18.3136 
411 46 9.86285 7.79572 18.3136 
412 46 9.86285 9.79572 18.3136 
413 46 11.8628 9.79572 16.3136 
414 46 11.8628 7.79572 16.3136 
415 46 9.86285 7.79572 16.3136 
416 46 9.86285 9.79572 16.3136 
417 48 16.7598 11.199 17.8479 
418 48 16.7598 9.199 17.8479 
419 48 14.7598 9.199 17.8479 
420 48 14.7598 11.199 17.8479 
421 48 16.7598 11.199 15.8479 
422 48 16.7598 9.199 15.8479 
423 48 14.7598 9.199 15.8479 
424 48 14.7598 11.199 15.8479 
425 52 11.5506 16.1452 17.629 
426 52 11.7374 14.171 17.369 
427 52 9.74835 13.9737 17.4376 
428 52 9.56156 15.948 17.6976 
429 52 11.4573 16.3973 15.6471 
430 52 11.644 14.4231 15.3871 
431 52 9.65498 14.2259 15.4558 
432 52 9.46819 16.2001 15.7157 
