ITEM: TIMESTEP
0
ITEM: NUMBER OF ENTRIES
432
ITEM: BOX BOUNDS pp pp pp
0 18
0 18
0 18
ITEM: ENTRIES index c_1[1] c_1[2] c_1[3] c_1[4] 
1 1 2.5 2.5 2.5 
2 1 2.5 0.5 2.5 
3 1 0.5 0.5 2.5 
4 1 0.5 2.5 2.5 
5 1 2.5 2.5 0.5 
6 1 2.5 0.5 0.5 
7 1 0.5 0.5 0.5 
8 1 0.5 2.5 0.5 
9 3 8.5 2.5 2.5 
10 3 8.5 0.5 2.5 
11 3 6.5 0.5 2.5 
12 3 6.5 2.5 2.5 
13 3 8.5 2.5 0.5 
14 3 8.5 0.5 0.5 
15 3 6.5 0.5 0.5 
16 3 6.5 2.5 0.5 
17 5 14.5 2.5 2.5 
18 5 14.5 0.5 2.5 
19 5 12.5 0.5 2.5 
20 5 12.5 2.5 2.5 
21 5 14.5 2.5 0.5 
22 5 14.5 0.5 0.5 
23 5 12.5 0.5 0.5 
24 5 12.5 2.5 0.5 
25 7 2.5 8.5 2.5 
26 7 2.5 6.5 2.5 
27 7 0.5 6.5 2.5 
28 7 0.5 8.5 2.5 
29 7 2.5 8.5 0.5 
30 7 2.5 6.5 0.5 
31 7 0.5 6.5 0.5 
32 7 0.5 8.5 0.5 
33 9 8.5 8.5 2.5 
34 9 8.5 6.5 2.5 
35 9 6.5 6.5 2.5 
36 9 6.5 8.5 2.5 
37 9 8.5 8.5 0.5 
38 9 8.5 6.5 0.5 
39 9 6.5 6.5 0.5 
40 9 6.5 8.5 0.5 
41 11 14.5 8.5 2.5 
42 11 14.5 6.5 2.5 
43 11 12.5 6.5 2.5 
44 11 12.5 8.5 2.5 
45 11 14.5 8.5 0.5 
46 11 14.5 6.5 0.5 
47 11 12.5 6.5 0.5 
48 11 12.5 8.5 0.5 
49 13 2.5 14.5 2.5 
50 13 2.5 12.5 2.5 
51 13 0.5 12.5 2.5 
52 13 0.5 14.5 2.5 
53 13 2.5 14.5 0.5 
54 13 2.5 12.5 0.5 
55 13 0.5 12.5 0.5 
56 13 0.5 14.5 0.5 
57 15 8.5 14.5 2.5 
58 15 8.5 12.5 2.5 
59 15 6.5 12.5 2.5 
60 15 6.5 14.5 2.5 
61 15 8.5 14.5 0.5 
62 15 8.5 12.5 0.5 
63 15 6.5 12.5 0.5 
64 15 6.5 14.5 0.5 
65 17 14.5 14.5 2.5 
66 17 14.5 12.5 2.5 
67 17 12.5 12.5 2.5 
68 17 12.5 14.5 2.5 
69 17 14.5 14.5 0.5 
70 17 14.5 12.5 0.5 
71 17 12.5 12.5 0.5 
72 17 12.5 14.5 0.5 
73 2 5 5 5 
74 2 5 3 5 
75 2 3 3 5 
76 2 3 5 5 
77 2 5 5 3 
78 2 5 3 3 
79 2 3 3 3 
80 2 3 5 3 
81 4 11 5 5 
82 4 11 3 5 
83 4 9 3 5 
84 4 9 5 5 
85 4 11 5 3 
86 4 11 3 3 
87 4 9 3 3 
88 4 9 5 3 
89 6 17 5 5 
90 6 17 3 5 
91 6 15 3 5 
92 6 15 5 5 
93 6 17 5 3 
94 6 17 3 3 
95 6 15 3 3 
96 6 15 5 3 
97 8 5 11 5 
98 8 5 9 5 
99 8 3 9 5 
100 8 3 11 5 
101 8 5 11 3 
102 8 5 9 3 
103 8 3 9 3 
104 8 3 11 3 
105 10 11 11 5 
106 10 11 9 5 
107 10 9 9 5 
108 10 9 11 5 
109 10 11 11 3 
110 10 11 9 3 
111 10 9 9 3 
112 10 9 11 3 
113 12 17 11 5 
114 12 17 9 5 
115 12 15 9 5 
116 12 15 11 5 
117 12 17 11 3 
118 12 17 9 3 
119 12 15 9 3 
120 12 15 11 3 
121 14 5 17 5 
122 14 5 15 5 
123 14 3 15 5 
124 14 3 17 5 
125 14 5 17 3 
126 14 5 15 3 
127 14 3 15 3 
128 14 3 17 3 
129 16 11 17 5 
130 16 11 15 5 
131 16 9 15 5 
132 16 9 17 5 
133 16 11 17 3 
134 16 11 15 3 
135 16 9 15 3 
136 16 9 17 3 
137 18 17 17 5 
138 18 17 15 5 
139 18 15 15 5 
140 18 15 17 5 
141 18 17 17 3 
142 18 17 15 3 
143 18 15 15 3 
144 18 15 17 3 
145 19 2.5 2.5 8.5 
146 19 2.5 0.5 8.5 
147 19 0.5 0.5 8.5 
148 19 0.5 2.5 8.5 
149 19 2.5 2.5 6.5 
150 19 2.5 0.5 6.5 
151 19 0.5 0.5 6.5 
152 19 0.5 2.5 6.5 
153 21 8.5 2.5 8.5 
154 21 8.5 0.5 8.5 
155 21 6.5 0.5 8.5 
156 21 6.5 2.5 8.5 
157 21 8.5 2.5 6.5 
158 21 8.5 0.5 6.5 
159 21 6.5 0.5 6.5 
160 21 6.5 2.5 6.5 
161 23 14.5 2.5 8.5 
162 23 14.5 0.5 8.5 
163 23 12.5 0.5 8.5 
164 23 12.5 2.5 8.5 
165 23 14.5 2.5 6.5 
166 23 14.5 0.5 6.5 
167 23 12.5 0.5 6.5 
168 23 12.5 2.5 6.5 
169 25 2.5 8.5 8.5 
170 25 2.5 6.5 8.5 
171 25 0.5 6.5 8.5 
172 25 0.5 8.5 8.5 
173 25 2.5 8.5 6.5 
174 25 2.5 6.5 6.5 
175 25 0.5 6.5 6.5 
176 25 0.5 8.5 6.5 
177 27 8.5 8.5 8.5 
178 27 8.5 6.5 8.5 
179 27 6.5 6.5 8.5 
180 27 6.5 8.5 8.5 
181 27 8.5 8.5 6.5 
182 27 8.5 6.5 6.5 
183 27 6.5 6.5 6.5 
184 27 6.5 8.5 6.5 
185 29 14.5 8.5 8.5 
186 29 14.5 6.5 8.5 
187 29 12.5 6.5 8.5 
188 29 12.5 8.5 8.5 
189 29 14.5 8.5 6.5 
190 29 14.5 6.5 6.5 
191 29 12.5 6.5 6.5 
192 29 12.5 8.5 6.5 
193 31 2.5 14.5 8.5 
194 31 2.5 12.5 8.5 
195 31 0.5 12.5 8.5 
196 31 0.5 14.5 8.5 
197 31 2.5 14.5 6.5 
198 31 2.5 12.5 6.5 
199 31 0.5 12.5 6.5 
200 31 0.5 14.5 6.5 
201 33 8.5 14.5 8.5 
202 33 8.5 12.5 8.5 
203 33 6.5 12.5 8.5 
204 33 6.5 14.5 8.5 
205 33 8.5 14.5 6.5 
206 33 8.5 12.5 6.5 
207 33 6.5 12.5 6.5 
208 33 6.5 14.5 6.5 
209 35 14.5 14.5 8.5 
210 35 14.5 12.5 8.5 
211 35 12.5 12.5 8.5 
212 35 12.5 14.5 8.5 
213 35 14.5 14.5 6.5 
214 35 14.5 12.5 6.5 
215 35 12.5 12.5 6.5 
216 35 12.5 14.5 6.5 
217 20 5 5 11 
218 20 5 3 11 
219 20 3 3 11 
220 20 3 5 11 
221 20 5 5 9 
222 20 5 3 9 
223 20 3 3 9 
224 20 3 5 9 
225 22 11 5 11 
226 22 11 3 11 
227 22 9 3 11 
228 22 9 5 11 
229 22 11 5 9 
230 22 11 3 9 
231 22 9 3 9 
232 22 9 5 9 
233 24 17 5 11 
234 24 17 3 11 
235 24 15 3 11 
236 24 15 5 11 
237 24 17 5 9 
238 24 17 3 9 
239 24 15 3 9 
240 24 15 5 9 
241 26 5 11 11 
242 26 5 9 11 
243 26 3 9 11 
244 26 3 11 11 
245 26 5 11 9 
246 26 5 9 9 
247 26 3 9 9 
248 26 3 11 9 
249 28 11 11 11 
250 28 11 9 11 
251 28 9 9 11 
252 28 9 11 11 
253 28 11 11 9 
254 28 11 9 9 
255 28 9 9 9 
256 28 9 11 9 
257 30 17 11 11 
258 30 17 9 11 
259 30 15 9 11 
260 30 15 11 11 
261 30 17 11 9 
262 30 17 9 9 
263 30 15 9 9 
264 30 15 11 9 
265 32 5 17 11 
266 32 5 15 11 
267 32 3 15 11 
268 32 3 17 11 
269 32 5 17 9 
270 32 5 15 9 
271 32 3 15 9 
272 32 3 17 9 
273 34 11 17 11 
274 34 11 15 11 
275 34 9 15 11 
276 34 9 17 11 
277 34 11 17 9 
278 34 11 15 9 
279 34 9 15 9 
280 34 9 17 9 
281 36 17 17 11 
282 36 17 15 11 
283 36 15 15 11 
284 36 15 17 11 
285 36 17 17 9 
286 36 17 15 9 
287 36 15 15 9 
288 36 15 17 9 
289 37 2.5 2.5 14.5 
290 37 2.5 0.5 14.5 
291 37 0.5 0.5 14.5 
292 37 0.5 2.5 14.5 
293 37 2.5 2.5 12.5 
294 37 2.5 0.5 12.5 
295 37 0.5 0.5 12.5 
296 37 0.5 2.5 12.5 
297 39 8.5 2.5 14.5 
298 39 8.5 0.5 14.5 
299 39 6.5 0.5 14.5 
300 39 6.5 2.5 14.5 
301 39 8.5 2.5 12.5 
302 39 8.5 0.5 12.5 
303 39 6.5 0.5 12.5 
304 39 6.5 2.5 12.5 
305 41 14.5 2.5 14.5 
306 41 14.5 0.5 14.5 
307 41 12.5 0.5 14.5 
308 41 12.5 2.5 14.5 
309 41 14.5 2.5 12.5 
310 41 14.5 0.5 12.5 
311 41 12.5 0.5 12.5 
312 41 12.5 2.5 12.5 
313 43 2.5 8.5 14.5 
314 43 2.5 6.5 14.5 
315 43 0.5 6.5 14.5 
316 43 0.5 8.5 14.5 
317 43 2.5 8.5 12.5 
318 43 2.5 6.5 12.5 
319 43 0.5 6.5 12.5 
320 43 0.5 8.5 12.5 
321 45 8.5 8.5 14.5 
322 45 8.5 6.5 14.5 
323 45 6.5 6.5 14.5 
324 45 6.5 8.5 14.5 
325 45 8.5 8.5 12.5 
326 45 8.5 6.5 12.5 
327 45 6.5 6.5 12.5 
328 45 6.5 8.5 12.5 
329 47 14.5 8.5 14.5 
330 47 14.5 6.5 14.5 
331 47 12.5 6.5 14.5 
332 47 12.5 8.5 14.5 
333 47 14.5 8.5 12.5 
334 47 14.5 6.5 12.5 
335 47 12.5 6.5 12.5 
336 47 12.5 8.5 12.5 
337 49 2.5 14.5 14.5 
338 49 2.5 12.5 14.5 
339 49 0.5 12.5 14.5 
340 49 0.5 14.5 14.5 
341 49 2.5 14.5 12.5 
342 49 2.5 12.5 12.5 
343 49 0.5 12.5 12.5 
344 49 0.5 14.5 12.5 
345 51 8.5 14.5 14.5 
346 51 8.5 12.5 14.5 
347 51 6.5 12.5 14.5 
348 51 6.5 14.5 14.5 
349 51 8.5 14.5 12.5 
350 51 8.5 12.5 12.5 
351 51 6.5 12.5 12.5 
352 51 6.5 14.5 12.5 
353 53 14.5 14.5 14.5 
354 53 14.5 12.5 14.5 
355 53 12.5 12.5 14.5 
356 53 12.5 14.5 14.5 
357 53 14.5 14.5 12.5 
358 53 14.5 12.5 12.5 
359 53 12.5 12.5 12.5 
360 53 12.5 14.5 12.5 
361 38 5 5 17 
362 38 5 3 17 
363 38 3 3 17 
364 38 3 5 17 
365 38 5 5 15 
366 38 5 3 15 
367 38 3 3 15 
368 38 3 5 15 
369 40 11 5 17 
370 40 11 3 17 
371 40 9 3 17 
372 40 9 5 17 
373 40 11 5 15 
374 40 11 3 15 
375 40 9 3 15 
376 40 9 5 15 
377 42 17 5 17 
378 42 17 3 17 
379 42 15 3 17 
380 42 15 5 17 
381 42 17 5 15 
382 42 17 3 15 
383 42 15 3 15 
384 42 15 5 15 
385 44 5 11 17 
386 44 5 9 17 
387 44 3 9 17 
388 44 3 11 17 
389 44 5 11 15 
390 44 5 9 15 
391 44 3 9 15 
392 44 3 11 15 
393 46 11 11 17 
394 46 11 9 17 
395 46 9 9 17 
396 46 9 11 17 
397 46 11 11 15 
398 46 11 9 15 
399 46 9 9 15 
400 46 9 11 15 
401 48 17 11 17 
402 48 17 9 17 
403 48 15 9 17 
404 48 15 11 17 
405 48 17 11 15 
406 48 17 9 15 
407 48 15 9 15 
408 48 15 11 15 
409 50 5 17 17 
410 50 5 15 17 
411 50 3 15 17 
412 50 3 17 17 
413 50 5 17 15 
414 50 5 15 15 
415 50 3 15 15 
416 50 3 17 15 
417 52 11 17 17 
418 52 11 15 17 
419 52 9 15 17 
420 52 9 17 17 
421 52 11 17 15 
422 52 11 15 15 
423 52 9 15 15 
424 52 9 17 15 
425 54 17 17 17 
426 54 17 15 17 
427 54 15 15 17 
428 54 15 17 17 
429 54 17 17 15 
430 54 17 15 15 
431 54 15 15 15 
432 54 15 17 15 
