LAMMPS (22 Aug 2018)
Running on 13 partitions of processors
Step MaxReplicaForce MaxAtomForce GradV0 GradV1 GradVc EBF EBR RDT RD1 PE1 RD2 PE2 ... RDN PEN
0    377.90135    249.48661    2.9774577    4.4127369    377.95919  0.037895187  0.037055944    1.4763579            0    -3.048332  0.083333333    -3.047094   0.16666667   -3.0437119         0.25   -3.0363904   0.33333333   -3.0250302   0.41666667   -3.0139507          0.5   -3.0104368   0.58333333   -3.0172595   0.66666667   -3.0291888         0.75   -3.0393161   0.83333333   -3.0449869   0.91666667   -3.0471413            1   -3.0474928 
100   0.41369644   0.36661823  0.069405386  0.027155352  0.041934526 0.0071026271 0.0022919467    2.3849004            0   -3.0535857   0.14788188   -3.0503921   0.22226313   -3.0486631    0.2932968   -3.0476004   0.36961392   -3.0469778   0.44783059   -3.0466532   0.52117301   -3.0465151    0.5950637   -3.0464831   0.67318668   -3.0465596   0.74774245   -3.0467767   0.81912039   -3.0472245   0.89355983   -3.0480722            1   -3.0487751 
200   0.14815466   0.12582079  0.023626222  0.010032372  0.011063168 0.0071096491 0.0022930882    2.4332715            0   -3.0535934     0.104937   -3.0520062   0.18543058   -3.0497145   0.26503671   -3.0480937   0.34590427    -3.047188    0.4272342   -3.0467392   0.50741889   -3.0465396   0.58773582   -3.0464837   0.66899694    -3.046553    0.7493868   -3.0467915   0.82897668   -3.0473457   0.90936929   -3.0483303            1   -3.0487768 
300  0.085640189  0.052326529  0.011983643 0.0064925244    0.0112642 0.0071109365 0.0022931846    2.4603893            0   -3.0535953  0.092301447   -3.0526194   0.17452313   -3.0501891   0.25658021    -3.048337   0.33888526   -3.0472901    0.4213064   -3.0467798   0.50346809   -3.0465516   0.58566123   -3.0464843   0.66804668   -3.0465496   0.75020731   -3.0467941   0.83215751   -3.0473853   0.91439677   -3.0484059            1   -3.0487775 
400  0.042857835  0.025400386 0.0072896134 0.0045191315  0.016935384 0.0071112416 0.0022930777    2.4756649            0    -3.053596  0.087621711   -3.0528655   0.17043447   -3.0504134   0.25322724   -3.0484603   0.33605903    -3.047342   0.41892452   -3.0468001    0.5017335   -3.0465578   0.58454867   -3.0464848   0.66739571   -3.0465476   0.75017221   -3.0467939   0.83288569   -3.0473985   0.91574129    -3.048432            1   -3.0487779 
500  0.033688466  0.013295607 0.0049546768 0.0032728665  0.020353677 0.0071113336 0.0022929595    2.4853811            0   -3.0535964  0.085571227   -3.0529818   0.16863042   -3.0505319   0.25169321   -3.0485276   0.33475102   -3.0473702   0.41782095   -3.0468111   0.50088145   -3.0465613   0.58394067   -3.0464851   0.66700067   -3.0465467   0.75002969    -3.046794   0.83303572   -3.0474056   0.91612907   -3.0484451            1   -3.0487781 
600  0.026743979 0.0077642583 0.0036866883 0.0024894704  0.022012101 0.0071113688 0.0022928763    2.4917969            0   -3.0535967  0.084641176   -3.0530413   0.16780895   -3.0505969   0.25098082   -3.0485648   0.33414233   -3.0473857   0.41730991   -3.0468169    0.5004778   -3.0465631   0.58364215   -3.0464853   0.66680366   -3.0465464   0.74994525   -3.0467946   0.83307528   -3.0474108   0.91626819   -3.0484536            1   -3.0487782 
700  0.021420143 0.0050071688 0.0029160136 0.0019785361  0.022786259 0.0071113874 0.0022928227    2.4962694            0   -3.0535968  0.084177387   -3.0530755   0.16739886   -3.0506358   0.25062316   -3.0485871   0.33383878   -3.0473948    0.4170583   -3.0468203   0.50027982   -3.0465641   0.58349724   -3.0464854   0.66671249   -3.0465464   0.74991224   -3.0467955   0.83310453   -3.0474152   0.91634594   -3.0484598            1   -3.0487782 
800  0.016935848 0.0034179172 0.0023549149 0.0015964207  0.023161454 0.0071114009 0.0022927854    2.4998018            0   -3.0535969  0.083898972   -3.0530989   0.16715331   -3.0506631   0.25040975   -3.0486026   0.33366002    -3.047401    0.4169131   -3.0468225   0.50016818   -3.0465647    0.5834192   -3.0464855   0.66666897   -3.0465465   0.74990614   -3.0467964   0.83313796   -3.0474192    0.9164089   -3.0484649            1   -3.0487783 
900  0.013765988 0.0024113084 0.0019719085 0.0013341926  0.023303203 0.0071114105 0.0022927624     2.502282            0   -3.0535969  0.083739532   -3.0531138    0.1670134   -3.0506806   0.25028919   -3.0486125   0.33356068   -3.0474049   0.41683438   -3.0468239   0.50010976   -3.0465651   0.58338135   -3.0464855   0.66665222   -3.0465466   0.74991257   -3.0467972   0.83316876   -3.0474222   0.91645709   -3.0484687            1   -3.0487783 
1000  0.011118673 0.0018424643 0.0016803811 0.0011351816   0.02334441 0.0071114179 0.0022927472    2.5041462            0    -3.053597  0.083636115   -3.0531242   0.16692327    -3.050693   0.25021232   -3.0486194    0.3334984   -3.0474077   0.41678625   -3.0468248   0.50007548   -3.0465653   0.58336126   -3.0464856    0.6666466   -3.0465467   0.74992308   -3.0467979   0.83319624   -3.0474247   0.91649613   -3.0484716            1   -3.0487783 
Climbing replica = 8
Step MaxReplicaForce MaxAtomForce GradV0 GradV1 GradVc EBF EBR RDT RD1 PE1 RD2 PE2 ... RDN PEN
1000  0.023660718  0.021738949 0.0016803811 0.0011351816   0.02334441 0.0071114179 0.0022927472    2.5041462            0    -3.053597  0.083636115   -3.0531242   0.16692327    -3.050693   0.25021232   -3.0486194    0.3334984   -3.0474077   0.41678625   -3.0468248   0.50007548   -3.0465653   0.58336126   -3.0464856    0.6666466   -3.0465467   0.74992308   -3.0467979   0.83319624   -3.0474247   0.91649613   -3.0484716            1   -3.0487783 
1100  0.012441677  0.010103524 0.0014328866 0.00096686524  0.010863116 0.0071118336 0.0022931456    2.5056089            0    -3.053597  0.083819161   -3.0531255   0.16741341   -3.0506844   0.25100445   -3.0486066   0.33459654   -3.0473977   0.41818975   -3.0468185   0.50178347   -3.0465622   0.58729026   -3.0464852   0.66826068   -3.0465497    0.7511426   -3.0468047   0.83402101   -3.0474362   0.91691834   -3.0484784            1   -3.0487783 
1142 0.0099826719  0.008447817 0.0013498973 0.00091057454 0.0080935113 0.0071118846 0.0022931913    2.5060657            0    -3.053597  0.083939548   -3.0531245   0.16768367   -3.0506781   0.25142347   -3.0485991   0.33516552   -3.0473924   0.41890874   -3.0468152   0.50265297   -3.0465606   0.58814781   -3.0464851   0.66907898   -3.0465512   0.75175997    -3.046808   0.83443829   -3.0474417   0.91713427   -3.0484814            1   -3.0487783 
