ITEM: TIMESTEP
0
ITEM: NUMBER OF ATOMS
0
ITEM: BOX BOUNDS ff fm pp
0.0000000000000000e+00 1.0000000000000000e+02
0.0000000000000000e+00 5.0000000000000000e+01
-5.0000000000000000e-01 5.0000000000000000e-01
ITEM: ATOMS id type xs ys zs
ITEM: TIMESTEP
250
ITEM: NUMBER OF ATOMS
224
ITEM: BOX BOUNDS ff fm pp
0.0000000000000000e+00 1.0000000000000000e+02
0.0000000000000000e+00 5.0000000000000000e+01
-5.0000000000000000e-01 5.0000000000000000e-01
ITEM: ATOMS id type xs ys zs
1 1 0.639768 0.675913 0.5
2 1 0.130713 0.666233 0.5
3 1 0.180449 0.652493 0.5
4 1 0.472829 0.687071 0.5
5 1 0.417385 0.666995 0.5
6 1 0.0500526 0.680624 0.5
7 1 0.250137 0.67973 0.5
8 1 0.303487 0.666467 0.5
9 1 0.155429 0.6283 0.5
10 1 0.697397 0.665766 0.5
11 1 0.035222 0.642263 0.5
12 1 0.434972 0.687882 0.5
13 1 0.714307 0.688612 0.5
14 1 0.432889 0.653187 0.5
15 1 0.777144 0.686702 0.5
16 1 0.790455 0.625453 0.5
17 1 0.690401 0.632801 0.5
18 1 0.41383 0.633294 0.5
19 1 0.0223253 0.688782 0.5
20 1 0.0322023 0.611069 0.5
21 1 0.880459 0.657883 0.5
22 1 0.275825 0.616779 0.5
23 1 0.693848 0.685866 0.5
24 1 0.085582 0.674452 0.5
25 1 0.970723 0.684019 0.5
26 1 0.556186 0.597952 0.5
27 1 0.162441 0.623165 0.5
28 1 0.440928 0.66804 0.5
29 1 0.56636 0.680078 0.5
30 1 0.221832 0.652484 0.5
31 1 0.0656884 0.685348 0.5
32 1 0.722131 0.660463 0.5
33 1 0.699393 0.605043 0.5
34 1 0.384575 0.68627 0.5
35 1 0.326929 0.686008 0.5
36 1 0.425385 0.624925 0.5
37 1 0.587246 0.681018 0.5
38 1 0.323652 0.590815 0.5
39 1 0.895747 0.686158 0.5
40 1 0.954444 0.689303 0.5
41 1 0.102105 0.679235 0.5
42 1 0.151688 0.648817 0.5
43 1 0.910126 0.641021 0.5
44 1 0.828548 0.585987 0.5
45 1 0.8321 0.623593 0.5
46 1 0.664472 0.687883 0.5
47 1 0.578325 0.682306 0.5
48 1 0.943871 0.630598 0.5
49 1 0.4725 0.610344 0.5
50 1 0.916825 0.598591 0.5
51 1 0.804808 0.592423 0.5
52 1 0.451278 0.645858 0.5
53 1 0.826249 0.637222 0.5
54 1 0.723017 0.588521 0.5
55 1 0.339533 0.672926 0.5
56 1 0.867549 0.684837 0.5
57 1 0.0862556 0.601083 0.5
58 1 0.0351055 0.680986 0.5
59 1 0.527796 0.661015 0.5
60 1 0.519736 0.677753 0.5
61 1 0.75928 0.671709 0.5
62 1 0.799105 0.687888 0.5
63 1 0.151013 0.680747 0.5
64 1 0.29483 0.678712 0.5
65 1 0.600191 0.593745 0.5
66 1 0.349952 0.683355 0.5
67 1 0.171109 0.638513 0.5
68 1 0.361652 0.687735 0.5
69 1 0.237398 0.677529 0.5
70 1 0.459158 0.653437 0.5
71 1 0.0900082 0.622444 0.5
72 1 0.818447 0.616569 0.5
73 1 0.330044 0.644171 0.5
74 1 0.778455 0.615153 0.5
75 1 0.972313 0.625981 0.5
76 1 0.397709 0.675925 0.5
77 1 0.551335 0.677541 0.5
78 1 0.535256 0.677992 0.5
79 1 0.144379 0.688746 0.5
80 1 0.287963 0.684398 0.5
81 1 0.591906 0.664373 0.5
82 1 0.121954 0.677736 0.5
83 1 0.65622 0.618086 0.5
84 1 0.858837 0.680091 0.5
85 1 0.891048 0.660021 0.5
86 1 0.795577 0.613947 0.5
87 1 0.591918 0.62071 0.5
88 1 0.458533 0.66751 0.5
89 1 0.215877 0.683544 0.5
90 1 0.46976 0.631497 0.5
91 1 0.123221 0.629936 0.5
92 1 0.271747 0.684049 0.5
93 1 0.371663 0.688649 0.5
94 1 0.807188 0.678841 0.5
95 1 0.49441 0.665826 0.5
96 1 0.985415 0.675057 0.5
97 1 0.585547 0.638524 0.5
98 1 0.188049 0.620434 0.5
99 1 0.256796 0.624872 0.5
100 1 0.643937 0.608168 0.5
101 1 0.166618 0.589661 0.5
102 1 0.196535 0.683641 0.5
103 1 0.0959084 0.648103 0.5
104 1 0.0763227 0.676173 0.5
105 1 0.132417 0.628859 0.5
106 1 0.358304 0.656357 0.5
107 1 0.653654 0.686 0.5
108 1 0.510161 0.634608 0.5
109 1 0.926797 0.671731 0.5
110 1 0.828496 0.688388 0.5
111 1 0.421766 0.688022 0.5
112 1 0.921612 0.630232 0.5
113 1 0.227165 0.675588 0.5
114 1 0.0429228 0.620836 0.5
115 1 0.935525 0.683091 0.5
116 1 0.617692 0.665517 0.5
117 1 0.495078 0.686611 0.5
118 1 0.18664 0.678386 0.5
119 1 0.717882 0.636273 0.5
120 1 0.586821 0.602735 0.5
121 1 0.916021 0.61734 0.5
122 1 0.10502 0.610686 0.5
123 1 0.165623 0.68262 0.5
124 1 0.980428 0.613608 0.5
125 1 0.829517 0.650178 0.5
126 1 0.746209 0.687892 0.5
127 1 0.336592 0.623071 0.5
128 1 0.783303 0.643574 0.5
129 1 0.575314 0.658045 0.5
130 1 0.0143113 0.616196 0.5
131 1 0.123886 0.606906 0.5
132 1 0.269637 0.655696 0.5
133 1 0.483648 0.656726 0.5
134 1 0.786663 0.681387 0.5
135 1 0.962458 0.637057 0.5
136 1 0.60459 0.686928 0.5
137 1 0.112683 0.647462 0.5
138 1 0.770369 0.642197 0.5
139 1 0.143241 0.664122 0.5
140 1 0.736432 0.59306 0.5
141 1 0.51222 0.687902 0.5
142 1 0.488505 0.677796 0.5
143 1 0.0107196 0.672076 0.5
144 1 0.268199 0.591093 0.5
145 1 0.0210685 0.6448 0.5
146 1 0.206393 0.677961 0.5
147 1 0.955329 0.639476 0.5
148 1 0.966748 0.585653 0.5
149 1 0.616004 0.646478 0.5
150 1 0.81586 0.641081 0.5
151 1 0.301641 0.688294 0.5
152 1 0.168111 0.666948 0.5
153 1 0.898693 0.647772 0.5
154 1 0.753283 0.687819 0.5
155 1 0.697831 0.584938 0.5
156 1 0.46193 0.684839 0.5
157 1 0.727793 0.685685 0.5
158 1 0.73722 0.68422 0.5
159 1 0.0772619 0.646607 0.5
160 1 0.612988 0.599808 0.5
161 1 0.314523 0.684661 0.5
162 1 0.0440569 0.651622 0.5
163 1 0.469743 0.584797 0.5
164 1 0.664961 0.597414 0.5
165 1 0.539044 0.643311 0.5
166 1 0.298099 0.632897 0.5
167 1 0.176921 0.686819 0.5
168 1 0.48336 0.612917 0.5
169 1 0.705103 0.679329 0.5
170 1 0.058339 0.612564 0.5
171 1 0.743101 0.654509 0.5
172 1 0.706292 0.648536 0.5
173 1 0.408946 0.680728 0.5
174 1 0.677834 0.682666 0.5
175 1 0.314717 0.618231 0.5
176 1 0.0685094 0.613921 0.5
177 1 0.980495 0.647934 0.5
178 1 0.468825 0.653035 0.5
179 1 0.953805 0.586519 0.5
180 1 0.0927705 0.672068 0.5
181 1 0.62894 0.676196 0.5
182 1 0.218877 0.588237 0.5
183 1 0.886071 0.689249 0.5
184 1 0.446535 0.684931 0.5
185 1 0.39099 0.639856 0.5
186 1 0.374183 0.632932 0.5
187 1 0.84926 0.688538 0.5
188 1 0.878635 0.584723 0.5
189 1 0.112154 0.686053 0.5
190 1 0.134069 0.686209 0.5
191 1 0.910607 0.682296 0.5
192 1 0.195958 0.605265 0.5
193 1 0.244731 0.593174 0.5
194 1 0.688465 0.665939 0.5
195 1 0.284578 0.625839 0.5
196 1 0.602132 0.647893 0.5
197 1 0.0440567 0.686389 0.5
198 1 0.839744 0.688014 0.5
199 1 0.804907 0.652518 0.5
200 1 0.670792 0.655884 0.5
201 1 0.159688 0.676277 0.5
202 1 0.621611 0.584892 0.5
203 1 0.772871 0.67215 0.5
204 1 0.360635 0.59387 0.5
205 1 0.213381 0.642312 0.5
206 1 0.405759 0.623133 0.5
207 1 0.377509 0.675011 0.5
208 1 0.8982 0.594216 0.5
209 1 0.0242522 0.669514 0.5
210 1 0.69327 0.612969 0.5
211 1 0.918486 0.680788 0.5
212 1 0.946866 0.670118 0.5
213 1 0.818678 0.674511 0.5
214 1 0.0121967 0.646539 0.5
215 1 0.260057 0.682767 0.5
216 1 0.270413 0.631253 0.5
217 1 0.561568 0.643235 0.5
218 1 0.543808 0.624963 0.5
219 1 0.600057 0.670474 0.5
220 1 0.0567913 0.686739 0.5
221 1 0.54286 0.687296 0.5
222 1 0.877744 0.677779 0.5
223 1 0.929497 0.627811 0.5
224 1 0.764346 0.660338 0.5
ITEM: TIMESTEP
500
ITEM: NUMBER OF ATOMS
224
ITEM: BOX BOUNDS ff fm pp
0.0000000000000000e+00 1.0000000000000000e+02
0.0000000000000000e+00 5.0000000000000000e+01
-5.0000000000000000e-01 5.0000000000000000e-01
ITEM: ATOMS id type xs ys zs
1 1 0.639768 0.669352 0.5
2 1 0.130713 0.657897 0.5
3 1 0.180449 0.642183 0.5
4 1 0.472829 0.683738 0.5
5 1 0.417385 0.658784 0.5
6 1 0.0500526 0.675156 0.5
7 1 0.250137 0.674036 0.5
8 1 0.303487 0.65817 0.5
9 1 0.155429 0.615253 0.5
10 1 0.697397 0.657356 0.5
11 1 0.035222 0.630711 0.5
12 1 0.434972 0.684954 0.5
13 1 0.714307 0.686124 0.5
14 1 0.432889 0.642966 0.5
15 1 0.777144 0.683204 0.5
16 1 0.790455 0.612123 0.5
17 1 0.690401 0.620216 0.5
18 1 0.41383 0.620761 0.5
19 1 0.0223253 0.686412 0.5
20 1 0.0322023 0.596394 0.5
21 1 0.880459 0.648295 0.5
22 1 0.275825 0.602622 0.5
23 1 0.693848 0.682024 0.5
24 1 0.085582 0.667591 0.5
25 1 0.970723 0.679526 0.5
26 1 0.556186 0.582154 0.5
27 1 0.162441 0.609612 0.5
28 1 0.440928 0.660004 0.5
29 1 0.56636 0.67447 0.5
30 1 0.221832 0.642173 0.5
31 1 0.0656884 0.681312 0.5
32 1 0.722131 0.651243 0.5
33 1 0.699393 0.589842 0.5
34 1 0.384575 0.682591 0.5
35 1 0.326929 0.682223 0.5
36 1 0.425385 0.611543 0.5
37 1 0.587246 0.675653 0.5
38 1 0.323652 0.574441 0.5
39 1 0.895747 0.682432 0.5
40 1 0.954444 0.687357 0.5
41 1 0.102105 0.67342 0.5
42 1 0.151688 0.638043 0.5
43 1 0.910126 0.629328 0.5
44 1 0.828548 0.569234 0.5
45 1 0.8321 0.610081 0.5
46 1 0.664472 0.684957 0.5
47 1 0.578325 0.677294 0.5
48 1 0.943871 0.617784 0.5
49 1 0.4725 0.595605 0.5
50 1 0.916825 0.582846 0.5
51 1 0.804808 0.576177 0.5
52 1 0.451278 0.634725 0.5
53 1 0.826249 0.625108 0.5
54 1 0.723017 0.571966 0.5
55 1 0.339533 0.665766 0.5
56 1 0.867549 0.680618 0.5
57 1 0.0862556 0.585546 0.5
58 1 0.0351055 0.675612 0.5
59 1 0.527796 0.651875 0.5
60 1 0.519736 0.671593 0.5
61 1 0.75928 0.66432 0.5
62 1 0.799105 0.684964 0.5
63 1 0.151013 0.67531 0.5
64 1 0.29483 0.672773 0.5
65 1 0.600191 0.577605 0.5
66 1 0.349952 0.678653 0.5
67 1 0.171109 0.626541 0.5
68 1 0.361652 0.68473 0.5
69 1 0.237398 0.671318 0.5
70 1 0.459158 0.64325 0.5
71 1 0.0900082 0.608821 0.5
72 1 0.818447 0.602392 0.5
73 1 0.330044 0.63284 0.5
74 1 0.778455 0.600846 0.5
75 1 0.972313 0.612703 0.5
76 1 0.397709 0.669366 0.5
77 1 0.551335 0.671333 0.5
78 1 0.535256 0.671886 0.5
79 1 0.144379 0.686349 0.5
80 1 0.287963 0.680029 0.5
81 1 0.591906 0.655742 0.5
82 1 0.121954 0.671572 0.5
83 1 0.65622 0.60405 0.5
84 1 0.858837 0.674486 0.5
85 1 0.891048 0.650737 0.5
86 1 0.795577 0.599531 0.5
87 1 0.591918 0.606921 0.5
88 1 0.458533 0.659384 0.5
89 1 0.215877 0.678899 0.5
90 1 0.46976 0.618776 0.5
91 1 0.123221 0.617055 0.5
92 1 0.271747 0.679565 0.5
93 1 0.371663 0.686186 0.5
94 1 0.807188 0.672933 0.5
95 1 0.49441 0.657424 0.5
96 1 0.985415 0.668318 0.5
97 1 0.585547 0.626552 0.5
98 1 0.188049 0.606619 0.5
99 1 0.256796 0.611484 0.5
100 1 0.643937 0.593238 0.5
101 1 0.166618 0.573196 0.5
102 1 0.196535 0.679027 0.5
103 1 0.0959084 0.637242 0.5
104 1 0.0763227 0.669666 0.5
105 1 0.132417 0.615868 0.5
106 1 0.358304 0.646559 0.5
107 1 0.653654 0.682211 0.5
108 1 0.510161 0.622213 0.5
109 1 0.926797 0.664345 0.5
110 1 0.828496 0.685754 0.5
111 1 0.421766 0.685172 0.5
112 1 0.921612 0.617381 0.5
113 1 0.227165 0.668959 0.5
114 1 0.0429228 0.607059 0.5
115 1 0.935525 0.678308 0.5
116 1 0.617692 0.657066 0.5
117 1 0.495078 0.683074 0.5
118 1 0.18664 0.672371 0.5
119 1 0.717882 0.624056 0.5
120 1 0.586821 0.587338 0.5
121 1 0.916021 0.603235 0.5
122 1 0.10502 0.595977 0.5
123 1 0.165623 0.677698 0.5
124 1 0.980428 0.599161 0.5
125 1 0.829517 0.639573 0.5
126 1 0.746209 0.68497 0.5
127 1 0.336592 0.609508 0.5
128 1 0.783303 0.632174 0.5
129 1 0.575314 0.64848 0.5
130 1 0.0143113 0.601986 0.5
131 1 0.123886 0.591865 0.5
132 1 0.269637 0.645808 0.5
133 1 0.483648 0.646978 0.5
134 1 0.786663 0.676119 0.5
135 1 0.962458 0.624925 0.5
136 1 0.60459 0.683531 0.5
137 1 0.112683 0.636522 0.5
138 1 0.770369 0.630638 0.5
139 1 0.143241 0.655452 0.5
140 1 0.736432 0.576866 0.5
141 1 0.51222 0.684986 0.5
142 1 0.488505 0.671646 0.5
143 1 0.0107196 0.664756 0.5
144 1 0.268199 0.57474 0.5
145 1 0.0210685 0.633543 0.5
146 1 0.206393 0.671848 0.5
147 1 0.955329 0.62761 0.5
148 1 0.966748 0.568874 0.5
149 1 0.616004 0.63542 0.5
150 1 0.81586 0.629395 0.5
151 1 0.301641 0.685603 0.5
152 1 0.168111 0.65873 0.5
153 1 0.898693 0.63687 0.5
154 1 0.753283 0.684857 0.5
155 1 0.697831 0.568104 0.5
156 1 0.46193 0.680621 0.5
157 1 0.727793 0.681775 0.5
158 1 0.73722 0.679792 0.5
159 1 0.0772619 0.635564 0.5
160 1 0.612988 0.584165 0.5
161 1 0.314523 0.680381 0.5
162 1 0.0440569 0.6412 0.5
163 1 0.469743 0.567952 0.5
164 1 0.664961 0.581573 0.5
165 1 0.539044 0.63188 0.5
166 1 0.298099 0.620322 0.5
167 1 0.176921 0.683372 0.5
168 1 0.48336 0.598408 0.5
169 1 0.705103 0.673537 0.5
170 1 0.058339 0.598023 0.5
171 1 0.743101 0.644462 0.5
172 1 0.706292 0.637727 0.5
173 1 0.408946 0.675286 0.5
174 1 0.677834 0.677758 0.5
175 1 0.314717 0.604209 0.5
176 1 0.0685094 0.599503 0.5
177 1 0.980495 0.637051 0.5
178 1 0.468825 0.642794 0.5
179 1 0.953805 0.569807 0.5
180 1 0.0927705 0.664745 0.5
181 1 0.62894 0.669695 0.5
182 1 0.218877 0.57166 0.5
183 1 0.886071 0.687254 0.5
184 1 0.446535 0.680745 0.5
185 1 0.39099 0.628033 0.5
186 1 0.374183 0.620361 0.5
187 1 0.84926 0.686 0.5
188 1 0.878635 0.567872 0.5
189 1 0.112154 0.682286 0.5
190 1 0.134069 0.682504 0.5
191 1 0.910607 0.67728 0.5
192 1 0.195958 0.590083 0.5
193 1 0.244731 0.576988 0.5
194 1 0.688465 0.657556 0.5
195 1 0.284578 0.612547 0.5
196 1 0.602132 0.637006 0.5
197 1 0.0440567 0.682758 0.5
198 1 0.839744 0.68516 0.5
199 1 0.804907 0.642211 0.5
200 1 0.670792 0.646022 0.5
201 1 0.159688 0.669793 0.5
202 1 0.621611 0.568055 0.5
203 1 0.772871 0.664843 0.5
204 1 0.360635 0.577741 0.5
205 1 0.213381 0.630766 0.5
206 1 0.405759 0.609576 0.5
207 1 0.377509 0.668262 0.5
208 1 0.8982 0.578114 0.5
209 1 0.0242522 0.66173 0.5
210 1 0.69327 0.598464 0.5
211 1 0.918486 0.675362 0.5
212 1 0.946866 0.662441 0.5
213 1 0.818678 0.667661 0.5
214 1 0.0121967 0.635489 0.5
215 1 0.260057 0.677888 0.5
216 1 0.270413 0.618507 0.5
217 1 0.561568 0.631795 0.5
218 1 0.543808 0.611585 0.5
219 1 0.600057 0.66286 0.5
220 1 0.0567913 0.683257 0.5
221 1 0.54286 0.68407 0.5
222 1 0.877744 0.671625 0.5
223 1 0.929497 0.614714 0.5
224 1 0.764346 0.6511 0.5
ITEM: TIMESTEP
750
ITEM: NUMBER OF ATOMS
285
ITEM: BOX BOUNDS ff fm pp
0.0000000000000000e+00 1.0000000000000000e+02
0.0000000000000000e+00 5.0000000000000000e+01
-5.0000000000000000e-01 5.0000000000000000e-01
ITEM: ATOMS id type xs ys zs
1 1 0.639768 0.66154 0.5
2 1 0.130713 0.648312 0.5
3 1 0.180449 0.630622 0.5
4 1 0.472829 0.679156 0.5
5 1 0.417385 0.649323 0.5
6 1 0.0500526 0.668437 0.5
7 1 0.250137 0.667092 0.5
8 1 0.303487 0.648623 0.5
9 1 0.155429 0.600956 0.5
10 1 0.697397 0.647695 0.5
11 1 0.035222 0.61791 0.5
12 1 0.434972 0.680777 0.5
13 1 0.714307 0.682385 0.5
14 1 0.432889 0.631496 0.5
15 1 0.777144 0.678456 0.5
16 1 0.790455 0.597542 0.5
17 1 0.690401 0.60638 0.5
18 1 0.41383 0.606977 0.5
19 1 0.0223253 0.682791 0.5
20 1 0.0322023 0.580469 0.5
21 1 0.880459 0.637457 0.5
22 1 0.275825 0.587215 0.5
23 1 0.693848 0.676933 0.5
24 1 0.085582 0.659479 0.5
25 1 0.970723 0.673782 0.5
26 1 0.556186 0.565107 0.5
27 1 0.162441 0.594808 0.5
28 1 0.440928 0.650717 0.5
29 1 0.56636 0.667613 0.5
30 1 0.221832 0.630611 0.5
31 1 0.0656884 0.676025 0.5
32 1 0.722131 0.640772 0.5
33 1 0.699393 0.573391 0.5
34 1 0.384575 0.677661 0.5
35 1 0.326929 0.677188 0.5
36 1 0.425385 0.596911 0.5
37 1 0.587246 0.669037 0.5
38 1 0.323652 0.556816 0.5
39 1 0.895747 0.677457 0.5
40 1 0.954444 0.684161 0.5
41 1 0.102105 0.666355 0.5
42 1 0.151688 0.626019 0.5
43 1 0.910126 0.616385 0.5
44 1 0.828548 0.551231 0.5
45 1 0.8321 0.595319 0.5
46 1 0.664472 0.68078 0.5
47 1 0.578325 0.671032 0.5
48 1 0.943871 0.60372 0.5
49 1 0.4725 0.579616 0.5
50 1 0.916825 0.565852 0.5
51 1 0.804808 0.558681 0.5
52 1 0.451278 0.622343 0.5
53 1 0.826249 0.611744 0.5
54 1 0.723017 0.554161 0.5
55 1 0.339533 0.657356 0.5
56 1 0.867549 0.675148 0.5
57 1 0.0862556 0.568759 0.5
58 1 0.0351055 0.668988 0.5
59 1 0.527796 0.641486 0.5
60 1 0.519736 0.664183 0.5
61 1 0.75928 0.655681 0.5
62 1 0.799105 0.68079 0.5
63 1 0.151013 0.668623 0.5
64 1 0.29483 0.665584 0.5
65 1 0.600191 0.560216 0.5
66 1 0.349952 0.6727 0.5
67 1 0.171109 0.613318 0.5
68 1 0.361652 0.680474 0.5
69 1 0.237398 0.663858 0.5
70 1 0.459158 0.631812 0.5
71 1 0.0900082 0.593948 0.5
72 1 0.818447 0.586966 0.5
73 1 0.330044 0.620259 0.5
74 1 0.778455 0.58529 0.5
75 1 0.972313 0.598175 0.5
76 1 0.397709 0.661557 0.5
77 1 0.551335 0.663875 0.5
78 1 0.535256 0.66453 0.5
79 1 0.144379 0.682702 0.5
80 1 0.287963 0.67441 0.5
81 1 0.591906 0.64586 0.5
82 1 0.121954 0.664158 0.5
83 1 0.65622 0.588765 0.5
84 1 0.858837 0.667632 0.5
85 1 0.891048 0.640202 0.5
86 1 0.795577 0.583864 0.5
87 1 0.591918 0.591882 0.5
88 1 0.458533 0.650009 0.5
89 1 0.215877 0.673005 0.5
90 1 0.46976 0.604806 0.5
91 1 0.123221 0.602924 0.5
92 1 0.271747 0.673831 0.5
93 1 0.371663 0.682473 0.5
94 1 0.807188 0.665774 0.5
95 1 0.49441 0.647773 0.5
96 1 0.985415 0.660329 0.5
97 1 0.585547 0.613331 0.5
98 1 0.188049 0.591554 0.5
99 1 0.256796 0.596847 0.5
100 1 0.643937 0.577057 0.5
101 1 0.166618 0.55548 0.5
102 1 0.196535 0.673163 0.5
103 1 0.0959084 0.62513 0.5
104 1 0.0763227 0.66191 0.5
105 1 0.132417 0.601627 0.5
106 1 0.358304 0.635511 0.5
107 1 0.653654 0.677172 0.5
108 1 0.510161 0.608568 0.5
109 1 0.926797 0.65571 0.5
110 1 0.828496 0.68187 0.5
111 1 0.421766 0.681072 0.5
112 1 0.921612 0.60328 0.5
113 1 0.227165 0.661079 0.5
114 1 0.0429228 0.592032 0.5
115 1 0.935525 0.672275 0.5
116 1 0.617692 0.647365 0.5
117 1 0.495078 0.678287 0.5
118 1 0.18664 0.665105 0.5
119 1 0.717882 0.61059 0.5
120 1 0.586821 0.57069 0.5
121 1 0.916021 0.58788 0.5
122 1 0.10502 0.580019 0.5
123 1 0.165623 0.671526 0.5
124 1 0.980428 0.583464 0.5
125 1 0.829517 0.627718 0.5
126 1 0.746209 0.680798 0.5
127 1 0.336592 0.594696 0.5
128 1 0.783303 0.619523 0.5
129 1 0.575314 0.637665 0.5
130 1 0.0143113 0.586525 0.5
131 1 0.123886 0.575575 0.5
132 1 0.269637 0.634671 0.5
133 1 0.483648 0.63598 0.5
134 1 0.786663 0.669602 0.5
135 1 0.962458 0.611543 0.5
136 1 0.60459 0.678883 0.5
137 1 0.112683 0.624333 0.5
138 1 0.770369 0.617829 0.5
139 1 0.143241 0.645531 0.5
140 1 0.736432 0.559421 0.5
141 1 0.51222 0.68082 0.5
142 1 0.488505 0.664245 0.5
143 1 0.0107196 0.656185 0.5
144 1 0.268199 0.557138 0.5
145 1 0.0210685 0.621036 0.5
146 1 0.206393 0.664485 0.5
147 1 0.955329 0.614494 0.5
148 1 0.966748 0.550845 0.5
149 1 0.616004 0.623112 0.5
150 1 0.81586 0.616459 0.5
151 1 0.301641 0.681662 0.5
152 1 0.168111 0.649262 0.5
153 1 0.898693 0.624718 0.5
154 1 0.753283 0.680646 0.5
155 1 0.697831 0.55002 0.5
156 1 0.46193 0.675153 0.5
157 1 0.727793 0.676614 0.5
158 1 0.73722 0.674115 0.5
159 1 0.0772619 0.623271 0.5
160 1 0.612988 0.567271 0.5
161 1 0.314523 0.674851 0.5
162 1 0.0440569 0.629528 0.5
163 1 0.469743 0.549857 0.5
164 1 0.664961 0.564482 0.5
165 1 0.539044 0.619199 0.5
166 1 0.298099 0.606497 0.5
167 1 0.176921 0.678675 0.5
168 1 0.48336 0.582648 0.5
169 1 0.705103 0.666495 0.5
170 1 0.058339 0.582232 0.5
171 1 0.743101 0.633166 0.5
172 1 0.706292 0.625669 0.5
173 1 0.408946 0.668595 0.5
174 1 0.677834 0.671599 0.5
175 1 0.314717 0.588937 0.5
176 1 0.0685094 0.583834 0.5
177 1 0.980495 0.624919 0.5
178 1 0.468825 0.631304 0.5
179 1 0.953805 0.551846 0.5
180 1 0.0927705 0.656172 0.5
181 1 0.62894 0.661944 0.5
182 1 0.218877 0.553832 0.5
183 1 0.886071 0.684008 0.5
184 1 0.446535 0.675308 0.5
185 1 0.39099 0.614959 0.5
186 1 0.374183 0.606539 0.5
187 1 0.84926 0.682212 0.5
188 1 0.878635 0.549772 0.5
189 1 0.112154 0.677268 0.5
190 1 0.134069 0.677549 0.5
191 1 0.910607 0.671015 0.5
192 1 0.195958 0.573651 0.5
193 1 0.244731 0.559552 0.5
194 1 0.688465 0.647923 0.5
195 1 0.284578 0.598005 0.5
196 1 0.602132 0.624869 0.5
197 1 0.0440567 0.677877 0.5
198 1 0.839744 0.681056 0.5
199 1 0.804907 0.630654 0.5
200 1 0.670792 0.634909 0.5
201 1 0.159688 0.662058 0.5
202 1 0.621611 0.549967 0.5
203 1 0.772871 0.656286 0.5
204 1 0.360635 0.560361 0.5
205 1 0.213381 0.61797 0.5
206 1 0.405759 0.59477 0.5
207 1 0.377509 0.660264 0.5
208 1 0.8982 0.560763 0.5
209 1 0.0242522 0.652697 0.5
210 1 0.69327 0.58271 0.5
211 1 0.918486 0.668687 0.5
212 1 0.946866 0.653514 0.5
213 1 0.818678 0.659561 0.5
214 1 0.0121967 0.623188 0.5
215 1 0.260057 0.671759 0.5
216 1 0.270413 0.604511 0.5
217 1 0.561568 0.619105 0.5
218 1 0.543808 0.596956 0.5
219 1 0.600057 0.653996 0.5
220 1 0.0567913 0.678525 0.5
221 1 0.54286 0.679594 0.5
222 1 0.877744 0.664221 0.5
223 1 0.929497 0.600368 0.5
224 1 0.764346 0.640611 0.5
225 1 0.0332844 0.647514 0.5
226 1 0.840606 0.625629 0.5
227 1 0.640948 0.688128 0.5
228 1 0.444319 0.607392 0.5
229 1 0.537584 0.649611 0.5
230 1 0.858552 0.689141 0.5
231 1 0.0207861 0.637395 0.5
232 1 0.195209 0.618144 0.5
233 1 0.207348 0.683166 0.5
234 1 0.36781 0.644451 0.5
235 1 0.54191 0.635136 0.5
236 1 0.866503 0.60857 0.5
237 1 0.916304 0.646584 0.5
238 1 0.575535 0.599779 0.5
239 1 0.262247 0.610835 0.5
240 1 0.389678 0.663885 0.5
241 1 0.138173 0.620157 0.5
242 1 0.631004 0.603562 0.5
243 1 0.78421 0.651836 0.5
244 1 0.494585 0.629203 0.5
245 1 0.922325 0.625433 0.5
246 1 0.481573 0.660224 0.5
247 1 0.124454 0.687609 0.5
248 1 0.718818 0.668347 0.5
249 1 0.0169922 0.671651 0.5
250 1 0.156581 0.645056 0.5
251 1 0.732934 0.644482 0.5
252 1 0.486237 0.611024 0.5
253 1 0.61756 0.670072 0.5
254 1 0.670184 0.611986 0.5
255 1 0.230472 0.617845 0.5
256 1 0.344154 0.625502 0.5
257 1 0.627973 0.680271 0.5
258 1 0.454306 0.684614 0.5
259 1 0.908451 0.595858 0.5
260 1 0.706449 0.68314 0.5
261 1 0.686059 0.671123 0.5
262 1 0.226192 0.684081 0.5
263 1 0.413563 0.631948 0.5
264 1 0.242645 0.689187 0.5
265 1 0.610256 0.633952 0.5
266 1 0.378634 0.643326 0.5
267 1 0.74906 0.658842 0.5
268 1 0.526445 0.677618 0.5
269 1 0.240356 0.614122 0.5
270 1 0.30197 0.59264 0.5
271 1 0.505837 0.671563 0.5
272 1 0.959403 0.66075 0.5
273 1 0.0890313 0.683743 0.5
274 1 0.0325783 0.685172 0.5
275 1 0.702993 0.609087 0.5
276 1 0.256842 0.689607 0.5
277 1 0.431586 0.651759 0.5
278 1 0.764737 0.671611 0.5
279 1 0.754812 0.611748 0.5
280 1 0.217286 0.600028 0.5
281 1 0.323084 0.664265 0.5
282 1 0.978919 0.688958 0.5
283 1 0.081525 0.678302 0.5
284 1 0.64798 0.651709 0.5
285 1 0.902746 0.648722 0.5
ITEM: TIMESTEP
1000
ITEM: NUMBER OF ATOMS
285
ITEM: BOX BOUNDS ff fm pp
0.0000000000000000e+00 1.0000000000000000e+02
0.0000000000000000e+00 5.0000000000000000e+01
-5.0000000000000000e-01 5.0000000000000000e-01
ITEM: ATOMS id type xs ys zs
1 1 0.639768 0.652479 0.5
2 1 0.130713 0.637477 0.5
3 1 0.180449 0.617812 0.5
4 1 0.472829 0.673323 0.5
5 1 0.417385 0.638612 0.5
6 1 0.0500526 0.660469 0.5
7 1 0.250137 0.658899 0.5
8 1 0.303487 0.637826 0.5
9 1 0.155429 0.585409 0.5
10 1 0.697397 0.636784 0.5
11 1 0.035222 0.603858 0.5
12 1 0.434972 0.67535 0.5
13 1 0.714307 0.677397 0.5
14 1 0.432889 0.618775 0.5
15 1 0.777144 0.672458 0.5
16 1 0.790455 0.581712 0.5
17 1 0.690401 0.591295 0.5
18 1 0.41383 0.591943 0.5
19 1 0.0223253 0.677921 0.5
20 1 0.0322023 0.563295 0.5
21 1 0.880459 0.625369 0.5
22 1 0.275825 0.570558 0.5
23 1 0.693848 0.670592 0.5
24 1 0.085582 0.650118 0.5
25 1 0.970723 0.666789 0.5
26 1 0.556186 0.54681 0.5
27 1 0.162441 0.578755 0.5
28 1 0.440928 0.640181 0.5
29 1 0.56636 0.659506 0.5
30 1 0.221832 0.617799 0.5
31 1 0.0656884 0.669488 0.5
32 1 0.722131 0.629052 0.5
33 1 0.699393 0.55569 0.5
34 1 0.384575 0.671481 0.5
35 1 0.326929 0.670902 0.5
36 1 0.425385 0.581029 0.5
37 1 0.587246 0.661172 0.5
38 1 0.323652 0.537942 0.5
39 1 0.895747 0.671231 0.5
40 1 0.954444 0.679716 0.5
41 1 0.102105 0.65804 0.5
42 1 0.151688 0.612745 0.5
43 1 0.910126 0.602192 0.5
44 1 0.828548 0.531978 0.5
45 1 0.8321 0.579307 0.5
46 1 0.664472 0.675353 0.5
47 1 0.578325 0.663519 0.5
48 1 0.943871 0.588407 0.5
49 1 0.4725 0.562377 0.5
50 1 0.916825 0.547608 0.5
51 1 0.804808 0.539935 0.5
52 1 0.451278 0.608711 0.5
53 1 0.826249 0.59713 0.5
54 1 0.723017 0.535105 0.5
55 1 0.339533 0.647695 0.5
56 1 0.867549 0.668429 0.5
57 1 0.0862556 0.550723 0.5
58 1 0.0351055 0.661114 0.5
59 1 0.527796 0.629846 0.5
60 1 0.519736 0.655523 0.5
61 1 0.75928 0.645791 0.5
62 1 0.799105 0.675365 0.5
63 1 0.151013 0.660687 0.5
64 1 0.29483 0.657145 0.5
65 1 0.600191 0.541576 0.5
66 1 0.349952 0.665497 0.5
67 1 0.171109 0.598845 0.5
68 1 0.361652 0.674968 0.5
69 1 0.237398 0.655147 0.5
70 1 0.459158 0.619124 0.5
71 1 0.0900082 0.577824 0.5
72 1 0.818447 0.570289 0.5
73 1 0.330044 0.606428 0.5
74 1 0.778455 0.568484 0.5
75 1 0.972313 0.582396 0.5
76 1 0.397709 0.652498 0.5
77 1 0.551335 0.655167 0.5
78 1 0.535256 0.655924 0.5
79 1 0.144379 0.677806 0.5
80 1 0.287963 0.667541 0.5
81 1 0.591906 0.634729 0.5
82 1 0.121954 0.655494 0.5
83 1 0.65622 0.572229 0.5
84 1 0.858837 0.659528 0.5
85 1 0.891048 0.628418 0.5
86 1 0.795577 0.566948 0.5
87 1 0.591918 0.575594 0.5
88 1 0.458533 0.639383 0.5
89 1 0.215877 0.665861 0.5
90 1 0.46976 0.589585 0.5
91 1 0.123221 0.587542 0.5
92 1 0.271747 0.666847 0.5
93 1 0.371663 0.677509 0.5
94 1 0.807188 0.657366 0.5
95 1 0.49441 0.636872 0.5
96 1 0.985415 0.65109 0.5
97 1 0.585547 0.598859 0.5
98 1 0.188049 0.575239 0.5
99 1 0.256796 0.580959 0.5
100 1 0.643937 0.559627 0.5
101 1 0.166618 0.536515 0.5
102 1 0.196535 0.666049 0.5
103 1 0.0959084 0.611769 0.5
104 1 0.0763227 0.652903 0.5
105 1 0.132417 0.586137 0.5
106 1 0.358304 0.623213 0.5
107 1 0.653654 0.670883 0.5
108 1 0.510161 0.593673 0.5
109 1 0.926797 0.645825 0.5
110 1 0.828496 0.676736 0.5
111 1 0.421766 0.675722 0.5
112 1 0.921612 0.587929 0.5
113 1 0.227165 0.65195 0.5
114 1 0.0429228 0.575755 0.5
115 1 0.935525 0.664992 0.5
116 1 0.617692 0.636415 0.5
117 1 0.495078 0.67225 0.5
118 1 0.18664 0.65659 0.5
119 1 0.717882 0.595873 0.5
120 1 0.586821 0.552792 0.5
121 1 0.916021 0.571275 0.5
122 1 0.10502 0.56281 0.5
123 1 0.165623 0.664103 0.5
124 1 0.980428 0.566518 0.5
125 1 0.829517 0.614613 0.5
126 1 0.746209 0.675377 0.5
127 1 0.336592 0.578633 0.5
128 1 0.783303 0.605623 0.5
129 1 0.575314 0.6256 0.5
130 1 0.0143113 0.569814 0.5
131 1 0.123886 0.558035 0.5
132 1 0.269637 0.622283 0.5
133 1 0.483648 0.623733 0.5
134 1 0.786663 0.661835 0.5
135 1 0.962458 0.596911 0.5
136 1 0.60459 0.672986 0.5
137 1 0.112683 0.610893 0.5
138 1 0.770369 0.60377 0.5
139 1 0.143241 0.634361 0.5
140 1 0.736432 0.540726 0.5
141 1 0.51222 0.675403 0.5
142 1 0.488505 0.655595 0.5
143 1 0.0107196 0.646364 0.5
144 1 0.268199 0.538286 0.5
145 1 0.0210685 0.607279 0.5
146 1 0.206393 0.655872 0.5
147 1 0.955329 0.600129 0.5
148 1 0.966748 0.531566 0.5
149 1 0.616004 0.609554 0.5
150 1 0.81586 0.602273 0.5
151 1 0.301641 0.676471 0.5
152 1 0.168111 0.638543 0.5
153 1 0.898693 0.611316 0.5
154 1 0.753283 0.675185 0.5
155 1 0.697831 0.530686 0.5
156 1 0.46193 0.668434 0.5
157 1 0.727793 0.670203 0.5
158 1 0.73722 0.667187 0.5
159 1 0.0772619 0.609728 0.5
160 1 0.612988 0.549128 0.5
161 1 0.314523 0.668071 0.5
162 1 0.0440569 0.616605 0.5
163 1 0.469743 0.530512 0.5
164 1 0.664961 0.546141 0.5
165 1 0.539044 0.605268 0.5
166 1 0.298099 0.591421 0.5
167 1 0.176921 0.672729 0.5
168 1 0.48336 0.565639 0.5
169 1 0.705103 0.658204 0.5
170 1 0.058339 0.565191 0.5
171 1 0.743101 0.620619 0.5
172 1 0.706292 0.61236 0.5
173 1 0.408946 0.660653 0.5
174 1 0.677834 0.664191 0.5
175 1 0.314717 0.572414 0.5
176 1 0.0685094 0.566916 0.5
177 1 0.980495 0.611537 0.5
178 1 0.468825 0.618563 0.5
179 1 0.953805 0.532634 0.5
180 1 0.0927705 0.64635 0.5
181 1 0.62894 0.652942 0.5
182 1 0.218877 0.534755 0.5
183 1 0.886071 0.679513 0.5
184 1 0.446535 0.668622 0.5
185 1 0.39099 0.600636 0.5
186 1 0.374183 0.591468 0.5
187 1 0.84926 0.677175 0.5
188 1 0.878635 0.530421 0.5
189 1 0.112154 0.671001 0.5
190 1 0.134069 0.671344 0.5
191 1 0.910607 0.6635 0.5
192 1 0.195958 0.555969 0.5
193 1 0.244731 0.540867 0.5
194 1 0.688465 0.63704 0.5
195 1 0.284578 0.582212 0.5
196 1 0.602132 0.611482 0.5
197 1 0.0440567 0.671746 0.5
198 1 0.839744 0.675702 0.5
199 1 0.804907 0.617846 0.5
200 1 0.670792 0.622547 0.5
201 1 0.159688 0.653074 0.5
202 1 0.621611 0.53063 0.5
203 1 0.772871 0.646478 0.5
204 1 0.360635 0.541731 0.5
205 1 0.213381 0.603924 0.5
206 1 0.405759 0.578713 0.5
207 1 0.377509 0.651015 0.5
208 1 0.8982 0.542161 0.5
209 1 0.0242522 0.642413 0.5
210 1 0.69327 0.565705 0.5
211 1 0.918486 0.660761 0.5
212 1 0.946866 0.643336 0.5
213 1 0.818678 0.650211 0.5
214 1 0.0121967 0.609637 0.5
215 1 0.260057 0.664379 0.5
216 1 0.270413 0.589265 0.5
217 1 0.561568 0.605165 0.5
218 1 0.543808 0.581078 0.5
219 1 0.600057 0.643882 0.5
220 1 0.0567913 0.672544 0.5
221 1 0.54286 0.673868 0.5
222 1 0.877744 0.655566 0.5
223 1 0.929497 0.584772 0.5
224 1 0.764346 0.628873 0.5
225 1 0.0332844 0.63658 0.5
226 1 0.840606 0.612316 0.5
227 1 0.640948 0.685337 0.5
228 1 0.444319 0.592394 0.5
229 1 0.537584 0.638935 0.5
230 1 0.858552 0.68705 0.5
231 1 0.0207861 0.6253 0.5
232 1 0.195209 0.604114 0.5
233 1 0.207348 0.678405 0.5
234 1 0.36781 0.633152 0.5
235 1 0.54191 0.622797 0.5
236 1 0.866503 0.593675 0.5
237 1 0.916304 0.635538 0.5
238 1 0.575535 0.584133 0.5
239 1 0.262247 0.59614 0.5
240 1 0.389678 0.655178 0.5
241 1 0.138173 0.606316 0.5
242 1 0.631004 0.588235 0.5
243 1 0.78421 0.641441 0.5
244 1 0.494585 0.616248 0.5
245 1 0.922325 0.6121 0.5
246 1 0.481573 0.650969 0.5
247 1 0.124454 0.684538 0.5
248 1 0.718818 0.660362 0.5
249 1 0.0169922 0.664251 0.5
250 1 0.156581 0.633829 0.5
251 1 0.732934 0.633187 0.5
252 1 0.486237 0.596346 0.5
253 1 0.61756 0.662387 0.5
254 1 0.670184 0.597393 0.5
255 1 0.230472 0.603787 0.5
256 1 0.344154 0.612177 0.5
257 1 0.627973 0.674712 0.5
258 1 0.454306 0.680318 0.5
259 1 0.908451 0.579889 0.5
260 1 0.706449 0.678371 0.5
261 1 0.686059 0.663626 0.5
262 1 0.226192 0.679607 0.5
263 1 0.413563 0.619273 0.5
264 1 0.242645 0.687136 0.5
265 1 0.610256 0.621488 0.5
266 1 0.378634 0.631897 0.5
267 1 0.74906 0.649389 0.5
268 1 0.526445 0.671427 0.5
269 1 0.240356 0.599722 0.5
270 1 0.30197 0.576412 0.5
271 1 0.505837 0.664146 0.5
272 1 0.959403 0.651571 0.5
273 1 0.0890313 0.67916 0.5
274 1 0.0325783 0.681071 0.5
275 1 0.702993 0.594237 0.5
276 1 0.256842 0.687989 0.5
277 1 0.431586 0.641353 0.5
278 1 0.764737 0.664204 0.5
279 1 0.754812 0.597134 0.5
280 1 0.217286 0.584403 0.5
281 1 0.323084 0.655617 0.5
282 1 0.978919 0.686718 0.5
283 1 0.081525 0.672266 0.5
284 1 0.64798 0.641298 0.5
285 1 0.902746 0.637937 0.5
ITEM: TIMESTEP
1250
ITEM: NUMBER OF ATOMS
424
ITEM: BOX BOUNDS ff fm pp
0.0000000000000000e+00 1.0000000000000000e+02
0.0000000000000000e+00 5.0000000000000000e+01
-5.0000000000000000e-01 5.0000000000000000e-01
ITEM: ATOMS id type xs ys zs
188 1 0.878635 0.509821 0.5
101 1 0.166618 0.516299 0.5
182 1 0.218877 0.514427 0.5
193 1 0.244731 0.520931 0.5
144 1 0.268199 0.518184 0.5
38 1 0.323652 0.517818 0.5
204 1 0.360635 0.521852 0.5
163 1 0.469743 0.509917 0.5
65 1 0.600191 0.521686 0.5
202 1 0.621611 0.510043 0.5
155 1 0.697831 0.510102 0.5
54 1 0.723017 0.5148 0.5
140 1 0.736432 0.520781 0.5
51 1 0.804808 0.519939 0.5
44 1 0.828548 0.511476 0.5
208 1 0.8982 0.522309 0.5
179 1 0.953805 0.512173 0.5
148 1 0.966748 0.511038 0.5
57 1 0.0862556 0.531436 0.5
26 1 0.556186 0.527263 0.5
120 1 0.586821 0.533645 0.5
160 1 0.612988 0.529735 0.5