ITEM: TIMESTEP
6000
ITEM: NUMBER OF ENTRIES
128
ITEM: BOX BOUNDS pp ff pp
0 33.7467
0 48
-0.5 0.5
ITEM: ENTRIES index c_1[1] c_1[2] c_1[3] c_1[4] 
1 5 17.0543 0.257934 0 
2 5 14.3265 3.1835 0 
3 5 17.2521 5.91133 0 
4 5 19.9799 2.98577 0 
5 8 29.5321 3.43805 0 
6 8 32.7206 5.85331 0 
7 8 35.1359 2.66481 0 
8 8 31.9474 0.249552 0 
9 2 5.7512 3.03973 0 
10 2 4.56443 6.85962 0 
11 2 8.38432 8.04639 0 
12 2 9.57109 4.2265 0 
13 7 23.1483 6.6715 0 
14 7 26.9851 7.8023 0 
15 7 28.1159 3.96547 0 
16 7 24.2791 2.83467 0 
17 1 -0.665338 6.26985 0 
18 1 0.00632321 10.2131 0 
19 1 3.94953 9.5414 0 
20 1 3.27787 5.59819 0 
21 3 10.5364 6.10026 0 
22 3 8.01829 9.20819 0 
23 3 11.1262 11.7263 0 
24 3 13.6443 8.61834 0 
25 4 18.8726 10.258 0 
26 4 18.0094 6.35228 0 
27 4 14.1037 7.21546 0 
28 4 14.9669 11.1212 0 
29 6 26.7545 13.0263 0 
30 6 27.6846 9.13591 0 
31 6 23.7942 8.20587 0 
32 6 22.8641 12.0962 0 
33 12 13.7907 11.4905 0 
34 12 13.9085 15.4887 0 
35 12 17.9068 15.3709 0 
36 12 17.789 11.3727 0 
37 13 18.5736 13.9126 0 
38 13 19.3263 17.8412 0 
39 13 23.2549 17.0885 0 
40 13 22.5022 13.1599 0 
41 16 -1.09682 16.4498 0 
42 16 -0.788664 20.4379 0 
43 16 3.19945 20.1298 0 
44 16 2.89129 16.1417 0 
45 9 3.69842 14.6736 0 
46 9 4.81247 18.5154 0 
47 9 8.6542 17.4013 0 
48 9 7.54015 13.5596 0 
49 10 8.98614 18.6712 0 
50 10 5.10834 19.6523 0 
51 10 6.08949 23.5301 0 
52 10 9.96729 22.549 0 
53 20 14.0719 17.7725 0 
54 20 14.5447 21.7444 0 
55 20 18.5166 21.2716 0 
56 20 18.0438 17.2997 0 
57 14 25.5349 17.8785 0 
58 14 21.753 19.1813 0 
59 14 23.0558 22.9632 0 
60 14 26.8377 21.6604 0 
61 15 27.3217 19.6899 0 
62 15 28.9393 23.3482 0 
63 15 32.5976 21.7306 0 
64 15 30.98 18.0723 0 
65 11 10.3049 23.0522 0 
66 11 10.9133 27.0057 0 
67 11 14.8667 26.3973 0 
68 11 14.2584 22.4439 0 
69 18 4.96665 25.8313 0 
70 18 6.06527 29.6775 0 
71 18 9.91144 28.5788 0 
72 18 8.81282 24.7327 0 
73 23 27.4232 23.8065 0 
74 23 26.1646 27.6034 0 
75 23 29.9615 28.8619 0 
76 23 31.22 25.0651 0 
77 17 1.11919 28.5895 0 
78 17 2.12587 32.4608 0 
79 17 5.99712 31.4541 0 
80 17 4.99044 27.5828 0 
81 19 10.2282 29.7215 0 
82 19 7.76582 32.8738 0 
83 19 10.9181 35.3361 0 
84 19 13.3804 32.1838 0 
85 21 12.5326 29.9279 0 
86 21 14.7392 33.2642 0 
87 21 18.0755 31.0575 0 
88 21 15.8688 27.7212 0 
89 24 34.5007 28.9475 0 
90 24 30.5932 29.8025 0 
91 24 31.4481 33.7101 0 
92 24 35.3557 32.8551 0 
93 22 22.2432 30.0579 0 
94 22 21.5674 34.0004 0 
95 22 25.5099 34.6762 0 
96 22 26.1857 30.7337 0 
97 29 17.6453 35.9481 0 
98 29 17.9141 39.939 0 
99 29 21.9051 39.6702 0 
100 29 21.6363 35.6793 0 
101 30 22.4409 35.1604 0 
102 30 22.4265 39.1603 0 
103 30 26.4265 39.1747 0 
104 30 26.4408 35.1747 0 
105 32 29.5271 31.9133 0 
106 32 26.3566 34.3522 0 
107 32 28.7956 37.5226 0 
108 32 31.966 35.0837 0 
109 28 11.4976 38.35 0 
110 28 12.4237 42.2413 0 
111 28 16.315 41.3152 0 
112 28 15.3889 37.4238 0 
113 27 5.09218 41.8961 0 
114 27 7.95037 44.6944 0 
115 27 10.7487 41.8362 0 
116 27 7.89053 39.0379 0 
117 31 26.412 39.6437 0 
118 31 23.0817 41.8594 0 
119 31 25.2974 45.1897 0 
120 31 28.6277 42.974 0 
121 26 1.10199 43.6003 0 
122 26 2.36948 47.3941 0 
123 26 6.16336 46.1266 0 
124 26 4.89586 42.3328 0 
125 25 30.1601 43.7439 0 
126 25 30.175 47.7438 0 
127 25 34.1749 47.729 0 
128 25 34.1601 43.729 0 
