ITEM: TIMESTEP
5000
ITEM: NUMBER OF ENTRIES
128
ITEM: BOX BOUNDS pp ff pp
0 39.4708
0 48
-0.5 0.5
ITEM: ENTRIES index c_1[1] c_1[2] c_1[3] c_1[4] 
1 8 34.4845 2.52978 0 
2 8 36.7169 5.84883 0 
3 8 40.036 3.61636 0 
4 8 37.8035 0.29731 0 
5 1 -0.245524 4.73614 0 
6 1 -0.194559 8.73581 0 
7 1 3.80512 8.68485 0 
8 1 3.75415 4.68517 0 
9 2 7.30769 3.34354 0 
10 2 5.86958 7.07608 0 
11 2 9.60212 8.51419 0 
12 2 11.0402 4.78165 0 
13 5 20.1557 0.507322 0 
14 5 18.274 4.03706 0 
15 5 21.8037 5.9188 0 
16 5 23.6855 2.38906 0 
17 7 28.6433 5.38655 0 
18 7 31.9996 7.56259 0 
19 7 34.1756 4.20627 0 
20 7 30.8193 2.03023 0 
21 3 11.3987 6.21817 0 
22 3 11.579 10.2141 0 
23 3 15.5749 10.0338 0 
24 3 15.3946 6.03783 0 
25 4 19.379 11.4954 0 
26 4 21.2444 7.95706 0 
27 4 17.7061 6.09158 0 
28 4 15.8406 9.62995 0 
29 6 28.5008 12.4528 0 
30 6 31.9292 10.3922 0 
31 6 29.8686 6.96384 0 
32 6 26.4402 9.02443 0 
33 12 16.0433 13.4234 0 
34 12 16.9717 17.3142 0 
35 12 20.8624 16.3859 0 
36 12 19.9341 12.4951 0 
37 13 20.818 13.2763 0 
38 13 21.4635 17.2238 0 
39 13 25.411 16.5783 0 
40 13 24.7655 12.6308 0 
41 9 2.77986 16.5728 0 
42 9 5.23612 19.7298 0 
43 9 8.39314 17.2735 0 
44 9 5.93687 14.1165 0 
45 16 -2.13755 17.6095 0 
46 16 -0.397247 21.2111 0 
47 16 3.20433 19.4708 0 
48 16 1.46403 15.8692 0 
49 10 8.26353 18.208 0 
50 10 5.84163 21.3915 0 
51 10 9.02508 23.8134 0 
52 10 11.447 20.6299 0 
53 20 15.701 18.0412 0 
54 20 15.7932 22.0401 0 
55 20 19.7922 21.9479 0 
56 20 19.6999 17.949 0 
57 14 29.1185 17.1418 0 
58 14 26.2022 19.8795 0 
59 14 28.9399 22.7959 0 
60 14 31.8562 20.0582 0 
61 15 33.2568 18.7303 0 
62 15 33.2398 22.7303 0 
63 15 37.2398 22.7473 0 
64 15 37.2568 18.7474 0 
65 11 11.3254 21.8199 0 
66 11 11.0209 25.8083 0 
67 11 15.0093 26.1128 0 
68 11 15.3138 22.1244 0 
69 18 6.36906 24.8008 0 
70 18 6.81428 28.776 0 
71 18 10.7894 28.3308 0 
72 18 10.3442 24.3556 0 
73 23 32.6462 23.192 0 
74 23 31.1455 26.8998 0 
75 23 34.8534 28.4005 0 
76 23 36.354 24.6926 0 
77 17 2.24427 28.1646 0 
78 17 2.71892 32.1363 0 
79 17 6.69066 31.6617 0 
80 17 6.216 27.6899 0 
81 19 11.3343 29.273 0 
82 19 9.53338 32.8447 0 
83 19 13.1051 34.6455 0 
84 19 14.9059 31.0739 0 
85 21 17.3473 29.8881 0 
86 21 18.3547 33.7592 0 
87 21 22.2258 32.7517 0 
88 21 21.2183 28.8807 0 
89 22 24.8649 30.542 0 
90 22 25.5329 34.4859 0 
91 22 29.4767 33.8179 0 
92 22 28.8088 29.8741 0 
93 24 37.8953 29.056 0 
94 24 34.927 31.7373 0 
95 24 37.6083 34.7055 0 
96 24 40.5766 32.0242 0 
97 29 20.2824 36.7762 0 
98 29 22.6785 39.9791 0 
99 29 25.8814 37.5829 0 
100 29 23.4852 34.38 0 
101 30 25.9943 36.891 0 
102 30 28.2401 40.201 0 
103 30 31.5501 37.9552 0 
104 30 29.3043 34.6452 0 
105 32 34.0206 33.0306 0 
106 32 30.6296 35.1521 0 
107 32 32.7511 38.5432 0 
108 32 36.1421 36.4216 0 
109 28 16.2037 37.6946 0 
110 28 16.3699 41.6911 0 
111 28 20.3665 41.5249 0 
112 28 20.2003 37.5284 0 
113 25 37.1388 42.9658 0 
114 25 36.8351 46.9542 0 
115 25 40.8236 47.2579 0 
116 25 41.1273 43.2695 0 
117 27 6.51385 42.528 0 
118 27 9.65773 45.0011 0 
119 27 12.1308 41.8572 0 
120 27 8.98691 39.3841 0 
121 31 30.6084 39.3707 0 
122 31 27.6342 42.0455 0 
123 31 30.309 45.0196 0 
124 31 33.2831 42.3449 0 
125 26 2.26865 44.1063 0 
126 26 3.91492 47.7518 0 
127 26 7.56044 46.1056 0 
128 26 5.91416 42.46 0 
