ITEM: TIMESTEP
1000
ITEM: NUMBER OF ENTRIES
128
ITEM: BOX BOUNDS pp ff pp
0 58.052
0 48
-0.5 0.5
ITEM: ENTRIES index c_1[1] c_1[2] c_1[3] c_1[4] 
1 1 2.43621 3.25368 0 
2 1 2.43621 7.25368 0 
3 1 6.43621 7.25368 0 
4 1 6.43621 3.25368 0 
5 2 9.91605 3.99674 0 
6 2 9.91605 7.99674 0 
7 2 13.916 7.99674 0 
8 2 13.916 3.99674 0 
9 3 16.6471 3.53009 0 
10 3 16.6471 7.53009 0 
11 3 20.6471 7.53009 0 
12 3 20.6471 3.53009 0 
13 4 25.0634 4.86629 0 
14 4 25.0634 8.86629 0 
15 4 29.0634 8.86629 0 
16 4 29.0634 4.86629 0 
17 5 32.5732 2.93802 0 
18 5 32.5243 6.93772 0 
19 5 36.524 6.98663 0 
20 5 36.5729 2.98692 0 
21 6 37.0022 4.19139 0 
22 6 36.9533 8.19109 0 
23 6 40.953 8.23999 0 
24 6 41.0019 4.24029 0 
25 7 46.1438 2.88465 0 
26 7 46.1447 6.88465 0 
27 7 50.1447 6.88374 0 
28 7 50.1438 2.88374 0 
29 8 51.9661 3.02981 0 
30 8 51.967 7.02981 0 
31 8 55.967 7.02891 0 
32 8 55.9661 3.02891 0 
33 9 2.99153 15.0105 0 
34 9 2.99153 19.0105 0 
35 9 6.99153 19.0105 0 
36 9 6.99153 15.0105 0 
37 10 9.43688 16.5375 0 
38 10 9.43688 20.5375 0 
39 10 13.4369 20.5375 0 
40 10 13.4369 16.5375 0 
41 11 17.1696 16.1924 0 
42 11 17.1696 20.1924 0 
43 11 21.1696 20.1924 0 
44 11 21.1696 16.1924 0 
45 12 23.7205 15.5222 0 
46 12 23.7205 19.5222 0 
47 12 27.7205 19.5222 0 
48 12 27.7205 15.5222 0 
49 13 31.4583 14.3053 0 
50 13 31.4583 18.3053 0 
51 13 35.4583 18.3053 0 
52 13 35.4583 14.3053 0 
53 14 39.1823 16.2702 0 
54 14 39.1823 20.2702 0 
55 14 43.1823 20.2702 0 
56 14 43.1823 16.2702 0 
57 15 46.3768 15.8403 0 
58 15 46.3768 19.8403 0 
59 15 50.3768 19.8403 0 
60 15 50.3768 15.8403 0 
61 16 53.2716 16.1264 0 
62 16 53.2716 20.1264 0 
63 16 57.2716 20.1264 0 
64 16 57.2716 16.1264 0 
65 17 3.28834 27.18 0 
66 17 3.28845 31.18 0 
67 17 7.28845 31.1799 0 
68 17 7.28834 27.1799 0 
69 18 9.223 27.4145 0 
70 18 9.22311 31.4145 0 
71 18 13.2231 31.4144 0 
72 18 13.223 27.4144 0 
73 19 16.8929 27.476 0 
74 19 16.8929 31.476 0 
75 19 20.8929 31.476 0 
76 19 20.8929 27.476 0 
77 20 23.2943 26.2225 0 
78 20 23.2943 30.2225 0 
79 20 27.2943 30.2225 0 
80 20 27.2943 26.2225 0 
81 21 31.2828 27.5826 0 
82 21 31.2828 31.5826 0 
83 21 35.2828 31.5826 0 
84 21 35.2828 27.5826 0 
85 22 37.6632 28.5135 0 
86 22 37.6632 32.5135 0 
87 22 41.6632 32.5135 0 
88 22 41.6632 28.5135 0 
89 23 46.642 26.2717 0 
90 23 46.6421 30.2717 0 
91 23 50.6421 30.2716 0 
92 23 50.642 26.2716 0 
93 24 52.5757 28.5644 0 
94 24 52.5759 32.5644 0 
95 24 56.5759 32.5643 0 
96 24 56.5757 28.5643 0 
97 25 2.3636 39.6847 0 
98 25 2.3636 43.6847 0 
99 25 6.3636 43.6847 0 
100 25 6.3636 39.6847 0 
101 27 15.9181 39.2267 0 
102 27 15.9181 43.2267 0 
103 27 19.9181 43.2267 0 
104 27 19.9181 39.2267 0 
105 29 31.6413 38.2319 0 
106 29 31.6413 42.2319 0 
107 29 35.6413 42.2319 0 
108 29 35.6413 38.2319 0 
109 31 44.4686 39.2481 0 
110 31 44.4686 43.2481 0 
111 31 48.4686 43.2481 0 
112 31 48.4686 39.2481 0 
113 26 8.42388 40.6038 0 
114 26 8.42388 44.6038 0 
115 26 12.4239 44.6038 0 
116 26 12.4239 40.6038 0 
117 28 24.9414 39.4624 0 
118 28 24.9414 43.4624 0 
119 28 28.9414 43.4624 0 
120 28 28.9414 39.4624 0 
121 30 38.7277 39.0519 0 
122 30 38.7277 43.0519 0 
123 30 42.7277 43.0519 0 
124 30 42.7277 39.0519 0 
125 32 51.5284 38.7223 0 
126 32 51.5284 42.7223 0 
127 32 55.5284 42.7223 0 
128 32 55.5284 38.7223 0 
