ITEM: TIMESTEP
9000
ITEM: NUMBER OF ENTRIES
128
ITEM: BOX BOUNDS pp ff pp
0 24.983
0 48
-0.5 0.5
ITEM: ENTRIES index c_1[1] c_1[2] c_1[3] c_1[4] 
1 2 2.94868 2.1657 0 
2 2 4.65138 5.7852 0 
3 2 8.27089 4.0825 0 
4 2 6.56818 0.462998 0 
5 5 13.1223 1.08806 0 
6 5 9.13786 0.735707 0 
7 5 8.78551 4.72016 0 
8 5 12.77 5.07251 0 
9 7 18.2581 8.52883 0 
10 7 20.5026 5.21789 0 
11 7 17.1917 2.97342 0 
12 7 14.9472 6.28437 0 
13 8 21.1107 4.67859 0 
14 8 24.452 6.87762 0 
15 8 26.651 3.53632 0 
16 8 23.3097 1.33729 0 
17 3 10.7324 6.62105 0 
18 3 6.74428 6.31289 0 
19 3 6.43612 10.301 0 
20 3 10.4242 10.6092 0 
21 4 14.984 11.4538 0 
22 4 16.029 7.59276 0 
23 4 12.1679 6.54777 0 
24 4 11.1229 10.4089 0 
25 1 -2.38128 9.90439 0 
26 1 -0.379941 13.3677 0 
27 1 3.08339 11.3664 0 
28 1 1.08205 7.90305 0 
29 6 22.4418 12.5166 0 
30 6 20.7129 8.9095 0 
31 6 17.1058 10.6384 0 
32 6 18.8347 14.2455 0 
33 9 4.94257 13.259 0 
34 9 4.35977 17.2163 0 
35 9 8.31708 17.7991 0 
36 9 8.89988 13.8418 0 
37 12 9.99153 11.154 0 
38 12 9.54577 15.1291 0 
39 12 13.5209 15.5748 0 
40 12 13.9666 11.5997 0 
41 16 -1.01473 16.0238 0 
42 16 0.555794 19.7026 0 
43 16 4.23458 18.1321 0 
44 16 2.66406 14.4533 0 
45 20 12.4289 15.8819 0 
46 20 11.0902 19.6512 0 
47 20 14.8595 20.9899 0 
48 20 16.1983 17.2206 0 
49 13 17.6939 14.3558 0 
50 13 16.4176 18.1468 0 
51 13 20.2085 19.423 0 
52 13 21.4848 15.6321 0 
53 10 8.53996 21.5661 0 
54 10 5.61434 18.8383 0 
55 10 2.88656 21.7639 0 
56 10 5.81218 24.4917 0 
57 14 19.1852 22.3446 0 
58 14 15.6578 20.4585 0 
59 14 13.7717 23.9859 0 
60 14 17.2991 25.872 0 
61 15 20.5719 23.1036 0 
62 15 24.5431 23.5824 0 
63 15 25.0219 19.6112 0 
64 15 21.0507 19.1324 0 
65 11 8.77913 23.4427 0 
66 11 12.144 25.6054 0 
67 11 14.3068 22.2405 0 
68 11 10.9419 20.0778 0 
69 18 7.00877 26.8204 0 
70 18 8.82878 30.3824 0 
71 18 12.3907 28.5624 0 
72 18 10.5707 25.0004 0 
73 23 19.7821 23.2687 0 
74 23 17.4542 26.5216 0 
75 23 20.7071 28.8494 0 
76 23 23.0349 25.5966 0 
77 17 2.56844 27.4942 0 
78 17 3.15112 31.4515 0 
79 17 7.10845 30.8688 0 
80 17 6.52578 26.9115 0 
81 21 8.08078 31.8107 0 
82 21 10.3523 35.1032 0 
83 21 13.6447 32.8317 0 
84 21 11.3732 29.5392 0 
85 22 18.9351 29.6396 0 
86 22 14.941 29.8582 0 
87 22 15.1596 33.8523 0 
88 22 19.1536 33.6337 0 
89 24 24.4245 27.2362 0 
90 24 21.4934 29.9581 0 
91 24 24.2153 32.8892 0 
92 24 27.1464 30.1673 0 
93 19 7.45835 31.8187 0 
94 19 4.15077 34.0681 0 
95 19 6.4002 37.3757 0 
96 19 9.70777 35.1262 0 
97 32 22.5271 32.4265 0 
98 32 20.181 35.6662 0 
99 32 23.4207 38.0123 0 
100 32 25.7668 34.7726 0 
101 29 17.0698 36.1386 0 
102 29 13.7391 33.9234 0 
103 29 11.524 37.2541 0 
104 29 14.8546 39.4692 0 
105 30 17.735 35.8933 0 
106 30 15.8178 39.4039 0 
107 30 19.3284 41.3212 0 
108 30 21.2456 37.8105 0 
109 28 7.0475 37.9767 0 
110 28 8.1981 41.8076 0 
111 28 12.029 40.657 0 
112 28 10.8784 36.8261 0 
113 27 2.11947 40.9216 0 
114 27 4.34596 44.2446 0 
115 27 7.66902 42.0181 0 
116 27 5.44253 38.6951 0 
117 31 18.0991 46.04 0 
118 31 16.411 42.4137 0 
119 31 12.7847 44.1017 0 
120 31 14.4728 47.7281 0 
121 25 18.7276 42.2289 0 
122 25 18.8783 46.2261 0 
123 25 22.8754 46.0754 0 
124 25 22.7248 42.0783 0 
125 26 -1.29022 43.8091 0 
126 26 -0.598253 47.7488 0 
127 26 3.34144 47.0569 0 
128 26 2.64947 43.1172 0 
