ITEM: TIMESTEP
10000
ITEM: NUMBER OF ENTRIES
128
ITEM: BOX BOUNDS pp ff pp
0 23.8563
0 48
-0.5 0.5
ITEM: ENTRIES index c_1[1] c_1[2] c_1[3] c_1[4] 
1 2 2.22458 1.1656 0 
2 2 3.09394 5.06998 0 
3 2 6.99833 4.20062 0 
4 2 6.12897 0.296238 0 
5 5 12.834 0.97492 0 
6 5 8.90018 0.2501 0 
7 5 8.17536 4.18388 0 
8 5 12.1091 4.9087 0 
9 7 18.6187 7.33719 0 
10 7 20.1547 3.64387 0 
11 7 16.4614 2.10783 0 
12 7 14.9254 5.80115 0 
13 8 20.3036 5.09125 0 
14 8 23.7718 7.08429 0 
15 8 25.7648 3.61618 0 
16 8 22.2967 1.62314 0 
17 3 10.0675 6.05292 0 
18 3 6.13461 5.32347 0 
19 3 5.40515 9.25639 0 
20 3 9.33808 9.98585 0 
21 4 15.4125 10.832 0 
22 4 16.6147 7.01694 0 
23 4 12.7996 5.81472 0 
24 4 11.5974 9.62977 0 
25 1 -1.32661 8.85123 0 
26 1 -0.848926 12.8226 0 
27 1 3.12245 12.3449 0 
28 1 2.64476 8.37355 0 
29 6 20.217 13.5319 0 
30 6 21.229 9.66201 0 
31 6 17.3591 8.65004 0 
32 6 16.3471 12.5199 0 
33 9 4.0516 14.7295 0 
34 9 6.10972 18.1593 0 
35 9 9.53961 16.1012 0 
36 9 7.48148 12.6713 0 
37 12 10.922 9.93903 0 
38 12 9.67146 13.7385 0 
39 12 13.471 14.9891 0 
40 12 14.7215 11.1896 0 
41 16 -1.36253 16.5079 0 
42 16 1.29089 19.5011 0 
43 16 4.28411 16.8477 0 
44 16 1.63069 13.8544 0 
45 20 11.3291 15.4046 0 
46 20 10.596 19.3369 0 
47 20 14.5283 20.07 0 
48 20 15.2614 16.1377 0 
49 13 18.4675 15.2864 0 
50 13 15.8101 18.2761 0 
51 13 18.7998 20.9335 0 
52 13 21.4572 17.9438 0 
53 10 8.1416 22.1954 0 
54 10 5.16934 19.5186 0 
55 10 2.49246 22.4908 0 
56 10 5.46471 25.1677 0 
57 15 20.538 23.5528 0 
58 15 24.53 23.8064 0 
59 15 24.7836 19.8145 0 
60 15 20.7916 19.5609 0 
61 11 8.24652 23.5525 0 
62 11 12.1624 24.3684 0 
63 11 12.9784 20.4525 0 
64 11 9.06246 19.6366 0 
65 14 18.299 23.7829 0 
66 14 15.2483 21.1958 0 
67 14 12.6612 24.2465 0 
68 14 15.7119 26.8336 0 
69 18 7.04337 26.99 0 
70 18 9.2541 30.3235 0 
71 18 12.5877 28.1128 0 
72 18 10.3769 24.7792 0 
73 23 19.8307 24.3377 0 
74 23 16.8518 27.0073 0 
75 23 19.5214 29.9861 0 
76 23 22.5002 27.3165 0 
77 17 1.56201 28.2185 0 
78 17 3.78687 31.5427 0 
79 17 7.11102 29.3178 0 
80 17 4.88615 25.9937 0 
81 22 18.8877 30.1147 0 
82 22 15.1693 28.6404 0 
83 22 13.695 32.3588 0 
84 22 17.4135 33.8331 0 
85 24 22.8989 27.7323 0 
86 24 20.4546 30.8986 0 
87 24 23.6209 33.3429 0 
88 24 26.0652 30.1765 0 
89 19 7.13472 33.0115 0 
90 19 3.39883 34.4409 0 
91 19 4.8282 38.1768 0 
92 19 8.56409 36.7474 0 
93 21 8.19884 31.8293 0 
94 21 10.1577 35.3169 0 
95 21 13.6452 33.3581 0 
96 21 11.6864 29.8705 0 
97 29 17.1478 36.4929 0 
98 29 14.0524 33.9595 0 
99 29 11.519 37.0549 0 
100 29 14.6144 39.5884 0 
101 32 21.5525 32.8792 0 
102 32 19.7443 36.4472 0 
103 32 23.3123 38.2554 0 
104 32 25.1205 34.6874 0 
105 27 1.52581 41.2098 0 
106 27 4.14611 44.2321 0 
107 27 7.16837 41.6118 0 
108 27 4.54807 38.5895 0 
109 28 7.09528 37.8735 0 
110 28 7.92339 41.7869 0 
111 28 11.8367 40.9587 0 
112 28 11.0086 37.0454 0 
113 30 18.3852 36.2348 0 
114 30 16.4781 39.7508 0 
115 30 19.9941 41.658 0 
116 30 21.9013 38.1419 0 
117 25 15.9948 42.8303 0 
118 25 16.6756 46.7719 0 
119 25 20.6172 46.0912 0 
120 25 19.9365 42.1495 0 
121 26 -2.09831 44.0229 0 
122 26 -0.605375 47.7338 0 
123 26 3.10557 46.2409 0 
124 26 1.61264 42.5299 0 
125 31 15.9998 47.0044 0 
126 31 15.5591 43.0287 0 
127 31 11.5835 43.4694 0 
128 31 12.0242 47.4451 0 
