ITEM: TIMESTEP
7000
ITEM: NUMBER OF ENTRIES
128
ITEM: BOX BOUNDS pp ff pp
0 30.9023
0 48
-0.5 0.5
ITEM: ENTRIES index c_1[1] c_1[2] c_1[3] c_1[4] 
1 5 15.5348 0.329293 0 
2 5 12.3607 2.76336 0 
3 5 14.7947 5.93752 0 
4 5 17.9689 3.50346 0 
5 8 26.7871 3.87174 0 
6 8 30.0277 6.21661 0 
7 8 32.3726 2.97599 0 
8 8 29.132 0.631125 0 
9 2 4.64658 2.59631 0 
10 2 4.59507 6.59598 0 
11 2 8.59474 6.64749 0 
12 2 8.64625 2.64782 0 
13 7 20.1974 7.75067 0 
14 7 24.192 7.95848 0 
15 7 24.3998 3.96388 0 
16 7 20.4052 3.75607 0 
17 1 -1.61155 8.03598 0 
18 1 -0.0325933 11.7112 0 
19 1 3.64258 10.1322 0 
20 1 2.06362 6.45702 0 
21 3 11.0766 7.39067 0 
22 3 7.32755 8.78506 0 
23 3 8.72194 12.5342 0 
24 3 12.471 11.1398 0 
25 4 17.5601 10.7306 0 
26 4 17.9234 6.74716 0 
27 4 13.94 6.38381 0 
28 4 13.5766 10.3673 0 
29 6 26.2203 12.1011 0 
30 6 24.4786 8.50017 0 
31 6 20.8777 10.2419 0 
32 6 22.6194 13.8428 0 
33 12 11.9232 12.6244 0 
34 12 13.365 16.3555 0 
35 12 17.0961 14.9136 0 
36 12 15.6543 11.1825 0 
37 13 18.0765 14.1687 0 
38 13 18.4329 18.1527 0 
39 13 22.417 17.7963 0 
40 13 22.0606 13.8122 0 
41 16 -0.344789 15.7441 0 
42 16 -0.695711 19.7287 0 
43 16 3.28887 20.0796 0 
44 16 3.63979 16.095 0 
45 9 5.83499 12.4053 0 
46 9 4.35086 16.1198 0 
47 9 8.06534 17.604 0 
48 9 9.54947 13.8895 0 
49 10 9.84736 19.7606 0 
50 10 6.17485 18.1754 0 
51 10 4.58971 21.8479 0 
52 10 8.26221 23.4331 0 
53 20 13.7461 17.4338 0 
54 20 14.3339 21.3904 0 
55 20 18.2905 20.8026 0 
56 20 17.7026 16.846 0 
57 14 23.709 19.5936 0 
58 14 19.8526 18.5315 0 
59 14 18.7905 22.3879 0 
60 14 22.6469 23.45 0 
61 15 24.7122 20.732 0 
62 15 27.4176 23.6783 0 
63 15 30.3639 20.9729 0 
64 15 27.6585 18.0266 0 
65 11 10.0672 23.8589 0 
66 11 12.1283 27.2871 0 
67 11 15.5564 25.226 0 
68 11 13.4954 21.7979 0 
69 18 5.61623 27.2866 0 
70 18 7.62394 30.7462 0 
71 18 11.0836 28.7385 0 
72 18 9.07586 25.2789 0 
73 23 24.9245 23.9719 0 
74 23 23.5358 27.7231 0 
75 23 27.287 29.1118 0 
76 23 28.6757 25.3606 0 
77 17 1.38324 29.0631 0 
78 17 3.40483 32.5146 0 
79 17 6.85638 30.493 0 
80 17 4.83479 27.0415 0 
81 21 10.3575 29.7265 0 
82 21 12.5252 33.0882 0 
83 21 15.8869 30.9205 0 
84 21 13.7192 27.5588 0 
85 24 30.4862 27.6982 0 
86 24 27.2512 30.0508 0 
87 24 29.6038 33.2858 0 
88 24 32.8388 30.9332 0 
89 19 10.0548 30.4049 0 
90 19 6.67946 32.5513 0 
91 19 8.82581 35.9266 0 
92 19 12.2012 33.7803 0 
93 22 21.2494 29.4485 0 
94 22 19.2416 32.908 0 
95 22 22.7011 34.9159 0 
96 22 24.709 31.4564 0 
97 32 27.969 31.7732 0 
98 32 24.4906 33.7481 0 
99 32 26.4655 37.2265 0 
100 32 29.9439 35.2516 0 
101 29 15.9834 35.4088 0 
102 29 13.9213 38.8362 0 
103 29 17.3487 40.8984 0 
104 29 19.4109 37.4709 0 
105 30 20.1875 36.2193 0 
106 30 20.6838 40.1884 0 
107 30 24.6529 39.6921 0 
108 30 24.1566 35.723 0 
109 28 8.80041 39.4572 0 
110 28 11.2259 42.6379 0 
111 28 14.4066 40.2124 0 
112 28 11.9812 37.0317 0 
113 27 4.50261 40.2794 0 
114 27 5.66496 44.1068 0 
115 27 9.49235 42.9444 0 
116 27 8.33001 39.1171 0 
117 31 24.7016 40.1877 0 
118 31 20.9548 41.5882 0 
119 31 22.3554 45.335 0 
120 31 26.1022 43.9344 0 
121 26 0.586628 42.8362 0 
122 26 0.952057 46.8194 0 
123 26 4.93533 46.454 0 
124 26 4.5699 42.4707 0 
125 25 26.5877 43.7246 0 
126 25 27.4042 47.6404 0 
127 25 31.3199 46.8239 0 
128 25 30.5035 42.9081 0 
