ITEM: TIMESTEP
8000
ITEM: NUMBER OF ENTRIES
128
ITEM: BOX BOUNDS pp ff pp
0 27.7111
0 48
-0.5 0.5
ITEM: ENTRIES index c_1[1] c_1[2] c_1[3] c_1[4] 
1 5 13.8313 0.729996 0 
2 5 10.3999 2.78565 0 
3 5 12.4556 6.21702 0 
4 5 15.8869 4.16137 0 
5 2 3.66729 2.32685 0 
6 2 4.57771 6.22186 0 
7 2 8.47272 5.31145 0 
8 2 7.56231 1.41643 0 
9 7 17.9222 8.52486 0 
10 7 21.6844 7.16624 0 
11 7 20.3257 3.40404 0 
12 7 16.5635 4.76266 0 
13 8 23.7266 4.30434 0 
14 8 27.0221 6.57147 0 
15 8 29.2892 3.276 0 
16 8 25.9937 1.00887 0 
17 1 -2.31544 9.52974 0 
18 1 -0.100237 12.8603 0 
19 1 3.23036 10.6451 0 
20 1 1.01516 7.31454 0 
21 4 16.1866 11.0677 0 
22 4 16.9126 7.13411 0 
23 4 12.9791 6.40808 0 
24 4 12.253 10.3416 0 
25 3 11.5734 7.72753 0 
26 3 7.5926 7.33594 0 
27 3 7.20101 11.3167 0 
28 3 11.1818 11.7083 0 
29 6 24.7001 11.0605 0 
30 6 21.6959 8.41945 0 
31 6 19.0549 11.4236 0 
32 6 22.0591 14.0646 0 
33 9 6.2213 12.4795 0 
34 9 4.55346 16.1152 0 
35 9 8.18916 17.783 0 
36 9 9.857 14.1473 0 
37 12 9.97141 12.8503 0 
38 12 11.8451 16.3843 0 
39 12 15.3791 14.5106 0 
40 12 13.5054 10.9766 0 
41 13 17.3207 14.5501 0 
42 13 17.5335 18.5444 0 
43 13 21.5278 18.3316 0 
44 13 21.315 14.3373 0 
45 16 -0.744333 15.8292 0 
46 16 -0.0896354 19.7753 0 
47 16 3.85642 19.1206 0 
48 16 3.20172 15.1746 0 
49 20 12.9395 16.4816 0 
50 20 12.313 20.4322 0 
51 20 16.2636 21.0587 0 
52 20 16.8901 17.1081 0 
53 10 9.41876 20.9196 0 
54 10 6.61719 18.0646 0 
55 10 3.76216 20.8662 0 
56 10 6.56374 23.7212 0 
57 14 21.4216 21.5885 0 
58 14 18.0032 19.5113 0 
59 14 15.926 22.9296 0 
60 14 19.3443 25.0069 0 
61 15 21.9637 21.746 0 
62 15 25.4478 23.7108 0 
63 15 27.4126 20.2267 0 
64 15 23.9285 18.2618 0 
65 11 9.42763 23.9031 0 
66 11 12.6488 26.2747 0 
67 11 15.0203 23.0535 0 
68 11 11.7992 20.682 0 
69 18 6.60869 26.5644 0 
70 18 8.07884 30.2845 0 
71 18 11.7989 28.8143 0 
72 18 10.3287 25.0943 0 
73 23 22.1429 23.6356 0 
74 23 20.301 27.1863 0 
75 23 23.8517 29.0282 0 
76 23 25.6936 25.4775 0 
77 17 1.97548 29.2899 0 
78 17 4.22095 32.6002 0 
79 17 7.53122 30.3547 0 
80 17 5.28575 27.0445 0 
81 21 9.43909 30.5606 0 
82 21 11.1293 34.1859 0 
83 21 14.7546 32.4957 0 
84 21 13.0645 28.8704 0 
85 24 27.352 27.3696 0 
86 24 24.16 29.7803 0 
87 24 26.5708 32.9722 0 
88 24 29.7627 30.5615 0 
89 19 8.91607 31.0576 0 
90 19 5.15752 32.4263 0 
91 19 6.52622 36.1848 0 
92 19 10.2848 34.8161 0 
93 22 20.092 29.2222 0 
94 22 16.6068 31.1852 0 
95 22 18.5697 34.6704 0 
96 22 22.055 32.7074 0 
97 32 24.9814 32.0083 0 
98 32 22.1408 34.8246 0 
99 32 24.957 37.6651 0 
100 32 27.7976 34.8489 0 
101 29 16.6651 35.4081 0 
102 29 12.6784 35.7342 0 
103 29 13.0046 39.7209 0 
104 29 16.9912 39.3947 0 
105 30 18.3815 35.9566 0 
106 30 17.651 39.8893 0 
107 30 21.5838 40.6198 0 
108 30 22.3142 36.6871 0 
109 28 7.79941 38.4966 0 
110 28 9.19253 42.2461 0 
111 28 12.9421 40.853 0 
112 28 11.549 37.1034 0 
113 26 -0.38031 43.1681 0 
114 26 0.216737 47.1233 0 
115 26 4.17193 46.5263 0 
116 26 3.57488 42.5711 0 
117 27 3.05022 40.7727 0 
118 27 4.92482 44.3062 0 
119 27 8.45836 42.4316 0 
120 27 6.58376 38.8981 0 
121 31 21.9087 41.9167 0 
122 31 17.9297 41.5078 0 
123 31 17.5208 45.4868 0 
124 31 21.4998 45.8957 0 
125 25 22.8107 42.7629 0 
126 25 23.1491 46.7486 0 
127 25 27.1348 46.4101 0 
128 25 26.7963 42.4245 0 
