ITEM: TIMESTEP
2000
ITEM: NUMBER OF ENTRIES
128
ITEM: BOX BOUNDS pp ff pp
0 52.821
0 48
-0.5 0.5
ITEM: ENTRIES index c_1[1] c_1[2] c_1[3] c_1[4] 
1 1 1.67449 3.55718 0 
2 1 1.67449 7.55718 0 
3 1 5.67449 7.55718 0 
4 1 5.67449 3.55718 0 
5 2 9.78258 3.99048 0 
6 2 9.77635 7.99048 0 
7 2 13.7763 7.99671 0 
8 2 13.7826 3.99672 0 
9 3 14.3241 4.16465 0 
10 3 14.3264 8.16465 0 
11 3 18.3264 8.16236 0 
12 3 18.3241 4.16236 0 
13 5 29.5739 2.37738 0 
14 5 28.4233 6.20833 0 
15 5 32.2543 7.35889 0 
16 5 33.4049 3.52793 0 
17 6 34.4215 4.03215 0 
18 6 33.2732 7.86381 0 
19 6 37.1049 9.01203 0 
20 6 38.2531 5.18037 0 
21 7 41.5956 2.74668 0 
22 7 41.5976 6.74668 0 
23 7 45.5976 6.74463 0 
24 7 45.5955 2.74463 0 
25 8 46.6903 1.86915 0 
26 8 46.6924 5.86915 0 
27 8 50.6924 5.86711 0 
28 8 50.6903 1.86711 0 
29 4 24.1274 5.90237 0 
30 4 24.1253 9.90237 0 
31 4 28.1253 9.90453 0 
32 4 28.1274 5.90453 0 
33 9 2.68048 15.0231 0 
34 9 2.68048 19.0231 0 
35 9 6.68048 19.0231 0 
36 9 6.68048 15.0231 0 
37 10 8.90416 17.1806 0 
38 10 8.90416 21.1806 0 
39 10 12.9042 21.1806 0 
40 10 12.9042 17.1806 0 
41 11 15.279 17.619 0 
42 11 15.279 21.619 0 
43 11 19.279 21.619 0 
44 11 19.279 17.619 0 
45 12 21.694 14.9506 0 
46 12 21.694 18.9506 0 
47 12 25.694 18.9506 0 
48 12 25.694 14.9506 0 
49 13 28.0778 13.4743 0 
50 13 28.0778 17.4743 0 
51 13 32.0778 17.4743 0 
52 13 32.0778 13.4743 0 
53 14 36.618 16.5934 0 
54 14 36.618 20.5934 0 
55 14 40.618 20.5934 0 
56 14 40.618 16.5934 0 
57 15 42.0177 16.8457 0 
58 15 42.0177 20.8457 0 
59 15 46.0177 20.8457 0 
60 15 46.0177 16.8457 0 
61 16 49.0556 16.2777 0 
62 16 49.0556 20.2777 0 
63 16 53.0556 20.2777 0 
64 16 53.0556 16.2777 0 
65 20 20.9219 24.0959 0 
66 20 20.9219 28.0959 0 
67 20 24.9219 28.0959 0 
68 20 24.9219 24.0959 0 
69 23 42.4981 25.4005 0 
70 23 42.4984 29.4005 0 
71 23 46.4984 29.4002 0 
72 23 46.4981 25.4002 0 
73 17 3.21815 27.3954 0 
74 17 3.2184 31.3954 0 
75 17 7.2184 31.3952 0 
76 17 7.21815 27.3952 0 
77 18 8.51668 26.714 0 
78 18 8.51692 30.714 0 
79 18 12.5169 30.7138 0 
80 18 12.5167 26.7138 0 
81 19 14.7777 28.0454 0 
82 19 14.7777 32.0454 0 
83 19 18.7777 32.0454 0 
84 19 18.7777 28.0454 0 
85 21 27.76 28.2795 0 
86 21 27.76 32.2795 0 
87 21 31.76 32.2795 0 
88 21 31.76 28.2795 0 
89 22 33.8659 29.1279 0 
90 22 33.8659 33.1279 0 
91 22 37.8659 33.1279 0 
92 22 37.8659 29.1279 0 
93 24 47.795 29.2396 0 
94 24 47.7953 33.2396 0 
95 24 51.7953 33.2393 0 
96 24 51.795 29.2393 0 
97 27 13.0119 39.4978 0 
98 27 13.0119 43.4978 0 
99 27 17.0119 43.4978 0 
100 27 17.0119 39.4978 0 
101 28 23.9125 38.8168 0 
102 28 23.9075 42.8168 0 
103 28 27.9075 42.8217 0 
104 28 27.9124 38.8217 0 
105 29 28.4075 37.3106 0 
106 29 28.4025 41.3106 0 
107 29 32.4025 41.3155 0 
108 29 32.4075 37.3155 0 
109 30 35.2663 37.625 0 
110 30 34.5845 41.5665 0 
111 30 38.5259 42.2484 0 
112 30 39.2078 38.3069 0 
113 31 39.8318 39.2125 0 
114 31 39.1458 43.1532 0 
115 31 43.0865 43.8392 0 
116 31 43.7725 39.8985 0 
117 32 45.8977 37.1936 0 
118 32 45.8977 41.1936 0 
119 32 49.8977 41.1936 0 
120 32 49.8977 37.1936 0 
121 25 1.54296 40.5039 0 
122 25 1.54296 44.5039 0 
123 25 5.54296 44.5039 0 
124 25 5.54296 40.5039 0 
125 26 7.06905 41.3261 0 
126 26 7.06905 45.3261 0 
127 26 11.0691 45.3261 0 
128 26 11.0691 41.3261 0 
