ITEM: TIMESTEP
3000
ITEM: NUMBER OF ENTRIES
128
ITEM: BOX BOUNDS pp ff pp
0 50.5117
0 48
-0.5 0.5
ITEM: ENTRIES index c_1[1] c_1[2] c_1[3] c_1[4] 
1 1 1.0491 3.89358 0 
2 1 1.0491 7.89358 0 
3 1 5.0491 7.89358 0 
4 1 5.0491 3.89358 0 
5 2 9.51525 3.92606 0 
6 2 9.06961 7.90115 0 
7 2 13.0447 8.3468 0 
8 2 13.4904 4.3717 0 
9 3 14.5178 4.29541 0 
10 3 13.5516 8.17695 0 
11 3 17.4331 9.14319 0 
12 3 18.3993 5.26164 0 
13 5 27.1503 2.97466 0 
14 5 27.7711 6.92619 0 
15 5 31.7226 6.30537 0 
16 5 31.1018 2.35384 0 
17 7 39.4644 2.58408 0 
18 7 39.4546 6.58406 0 
19 7 43.4546 6.5938 0 
20 7 43.4643 2.59381 0 
21 8 44.0002 0.579258 0 
22 8 43.9905 4.57925 0 
23 8 47.9905 4.58899 0 
24 8 48.0002 0.588998 0 
25 4 23.0162 10.7318 0 
26 4 27.0162 10.7487 0 
27 4 27.0331 6.74876 0 
28 4 23.0331 6.73186 0 
29 6 34.432 4.89664 0 
30 6 33.5245 8.79234 0 
31 6 37.4202 9.6998 0 
32 6 38.3277 5.8041 0 
33 13 26.2935 12.5531 0 
34 13 26.2935 16.5531 0 
35 13 30.2935 16.5531 0 
36 13 30.2935 12.5531 0 
37 9 2.65397 15.037 0 
38 9 2.65397 19.037 0 
39 9 6.65397 19.037 0 
40 9 6.65397 15.037 0 
41 10 9.06662 17.8933 0 
42 10 9.06662 21.8933 0 
43 10 13.0666 21.8933 0 
44 10 13.0666 17.8933 0 
45 12 21.0318 14.3171 0 
46 12 21.0318 18.3171 0 
47 12 25.0318 18.3171 0 
48 12 25.0318 14.3171 0 
49 14 35.9724 16.723 0 
50 14 35.2908 20.6645 0 
51 14 39.2323 21.3461 0 
52 14 39.9139 17.4046 0 
53 15 41.2664 17.563 0 
54 15 40.5788 21.5035 0 
55 15 44.5192 22.1912 0 
56 15 45.2069 18.2507 0 
57 16 47.8049 16.4454 0 
58 16 47.8049 20.4454 0 
59 16 51.8049 20.4454 0 
60 16 51.8049 16.4454 0 
61 11 14.3139 19.2003 0 
62 11 14.3139 23.2003 0 
63 11 18.3139 23.2003 0 
64 11 18.3139 19.2003 0 
65 18 8.44834 25.9374 0 
66 18 8.44836 29.9374 0 
67 18 12.4484 29.9373 0 
68 18 12.4483 25.9373 0 
69 20 19.8 21.7387 0 
70 20 19.8 25.7387 0 
71 20 23.8 25.7387 0 
72 20 23.8 21.7387 0 
73 23 40.8598 24.4347 0 
74 23 40.8603 28.4347 0 
75 23 44.8603 28.4343 0 
76 23 44.8598 24.4343 0 
77 17 3.51222 27.634 0 
78 17 3.51224 31.634 0 
79 17 7.51224 31.634 0 
80 17 7.51222 27.634 0 
81 19 13.5142 28.6766 0 
82 19 13.5142 32.6766 0 
83 19 17.5142 32.6766 0 
84 19 17.5142 28.6766 0 
85 21 25.7864 29.0521 0 
86 21 25.7864 33.0521 0 
87 21 29.7864 33.0521 0 
88 21 29.7864 29.0521 0 
89 22 32.0113 29.8088 0 
90 22 32.0113 33.8088 0 
91 22 36.0113 33.8088 0 
92 22 36.0113 29.8088 0 
93 24 45.794 29.988 0 
94 24 45.7944 33.988 0 
95 24 49.7944 33.9876 0 
96 24 49.794 29.9876 0 
97 27 10.6946 39.7828 0 
98 27 10.6634 43.7827 0 
99 27 14.6633 43.8139 0 
100 27 14.6945 39.8141 0 
101 28 22.951 38.6207 0 
102 28 23.8036 42.5287 0 
103 28 27.7117 41.6761 0 
104 28 26.859 37.768 0 
105 29 27.1472 36.7189 0 
106 29 28.1164 40.5997 0 
107 29 31.9972 39.6306 0 
108 29 31.028 35.7497 0 
109 30 33.2699 36.4421 0 
110 30 32.4073 40.348 0 
111 30 36.3132 41.2106 0 
112 30 37.1758 37.3047 0 
113 31 38.5611 39.0707 0 
114 31 36.6388 42.5785 0 
115 31 40.1467 44.5007 0 
116 31 42.0689 40.9929 0 
117 32 42.7672 35.4992 0 
118 32 42.7672 39.4992 0 
119 32 46.7672 39.4992 0 
120 32 46.7672 35.4992 0 
121 25 0.839263 41.4119 0 
122 25 0.839263 45.4119 0 
123 25 4.83926 45.4119 0 
124 25 4.83926 41.4119 0 
125 26 6.17302 42.1112 0 
126 26 6.1418 46.1111 0 
127 26 10.1417 46.1423 0 
128 26 10.1729 42.1424 0 
