ITEM: TIMESTEP
4000
ITEM: NUMBER OF ENTRIES
128
ITEM: BOX BOUNDS pp ff pp
0 46.6289
0 48
-0.5 0.5
ITEM: ENTRIES index c_1[1] c_1[2] c_1[3] c_1[4] 
1 8 40.4447 1.10701 0 
2 8 41.2954 5.01551 0 
3 8 45.2039 4.16483 0 
4 8 44.3532 0.256334 0 
5 1 0.343825 4.20732 0 
6 1 0.343825 8.20732 0 
7 1 4.34383 8.20732 0 
8 1 4.34383 4.20732 0 
9 2 8.69207 3.89741 0 
10 2 8.17065 7.86328 0 
11 2 12.1365 8.3847 0 
12 2 12.6579 4.41884 0 
13 5 24.283 1.6555 0 
14 5 23.4908 5.57627 0 
15 5 27.4115 6.36847 0 
16 5 28.2037 2.4477 0 
17 7 35.2253 3.95996 0 
18 7 37.407 7.3126 0 
19 7 40.7597 5.13091 0 
20 7 38.578 1.77827 0 
21 3 13.7779 4.88215 0 
22 3 12.6464 8.71878 0 
23 3 16.483 9.85027 0 
24 3 17.6145 6.01365 0 
25 4 23.2033 11.9507 0 
26 4 25.9706 9.0624 0 
27 4 23.0823 6.29514 0 
28 4 20.315 9.18343 0 
29 6 31.4728 8.9884 0 
30 6 34.8007 11.2076 0 
31 6 37.0199 7.87966 0 
32 6 33.692 5.66046 0 
33 13 24.017 12.3838 0 
34 13 24.3381 16.3709 0 
35 13 28.3252 16.0498 0 
36 13 28.0041 12.0627 0 
37 9 2.65057 15.3271 0 
38 9 3.15216 19.2956 0 
39 9 7.12059 18.794 0 
40 9 6.619 14.8256 0 
41 12 19.5142 13.7816 0 
42 12 19.6447 17.7794 0 
43 12 23.6426 17.6489 0 
44 12 23.512 13.651 0 
45 14 33.7725 16.8099 0 
46 14 31.7801 20.2784 0 
47 14 35.2487 22.2707 0 
48 14 37.241 18.8022 0 
49 16 44.3262 16.8571 0 
50 16 44.8265 20.8257 0 
51 16 48.7951 20.3255 0 
52 16 48.2948 16.3569 0 
53 10 8.83669 18.4228 0 
54 10 8.52829 22.4109 0 
55 10 12.5164 22.7193 0 
56 10 12.8248 18.7312 0 
57 11 13.1956 20.5134 0 
58 11 12.8862 24.5015 0 
59 11 16.8742 24.8108 0 
60 11 17.1836 20.8228 0 
61 15 40.3094 17.9389 0 
62 15 38.7161 21.6079 0 
63 15 42.3851 23.2012 0 
64 15 43.9784 19.5322 0 
65 20 18.0023 19.5406 0 
66 20 18.0028 23.5406 0 
67 20 22.0028 23.5401 0 
68 20 22.0023 19.5401 0 
69 18 7.85402 25.2764 0 
70 18 7.98137 29.2743 0 
71 18 11.9793 29.147 0 
72 18 11.852 25.149 0 
73 23 37.9954 23.5465 0 
74 23 37.6575 27.5322 0 
75 23 41.6432 27.8702 0 
76 23 41.9811 23.8844 0 
77 17 3.39595 27.8756 0 
78 17 3.50291 31.8741 0 
79 17 7.50148 31.7672 0 
80 17 7.39452 27.7686 0 
81 19 12.4507 28.9887 0 
82 19 11.7652 32.9296 0 
83 19 15.706 33.6151 0 
84 19 16.3915 29.6743 0 
85 21 22.9694 29.7726 0 
86 21 22.9691 33.7726 0 
87 21 26.9691 33.7729 0 
88 21 26.9694 29.7729 0 
89 22 29.1325 30.3956 0 
90 22 29.065 34.395 0 
91 22 33.0644 34.4626 0 
92 22 33.1319 30.4631 0 
93 24 43.0746 29.6153 0 
94 24 41.8023 33.4076 0 
95 24 45.5946 34.6799 0 
96 24 46.8669 30.8876 0 
97 29 24.9053 35.8074 0 
98 29 26.7118 39.3762 0 
99 29 30.2806 37.5697 0 
100 29 28.4741 34.0009 0 
101 32 38.98 33.9247 0 
102 32 37.7072 37.7168 0 
103 32 41.4993 38.9895 0 
104 32 42.7721 35.1974 0 
105 28 20.3549 38.15 0 
106 28 20.9333 42.1079 0 
107 28 24.8912 41.5296 0 
108 28 24.3128 37.5716 0 
109 30 30.5256 36.3025 0 
110 30 31.445 40.1954 0 
111 30 35.3379 39.2761 0 
112 30 34.4185 35.3831 0 
113 25 -0.755273 42.5871 0 
114 25 -0.171987 46.5443 0 
115 25 3.78526 45.9611 0 
116 25 3.20197 42.0038 0 
117 26 3.88048 43.3659 0 
118 26 4.80189 47.2583 0 
119 26 8.69432 46.3369 0 
120 26 7.77291 42.4445 0 
121 27 8.52586 41.4257 0 
122 27 10.6167 44.8358 0 
123 27 14.0267 42.745 0 
124 27 11.9359 39.3349 0 
125 31 36.2563 39.3233 0 
126 31 33.4305 42.1543 0 
127 31 36.2615 44.9802 0 
128 31 39.0873 42.1491 0 
