LAMMPS (22 Aug 2018)
  using 1 OpenMP thread(s) per MPI task
units lj
dimension 2
atom_style body rounded/polygon 1 6
atom_modify map array
read_data data.squares
  orthogonal box = (0 0 -0.5) to (12 12 0.5)
  1 by 1 by 1 MPI processor grid
  reading atoms ...
  2 atoms
  2 bodies
variable r index 4
variable steps index 10000
variable T index 0.5
variable P index 0.1
variable seed index 980411
replicate $r $r 1
replicate 4 $r 1
replicate 4 4 1
  orthogonal box = (0 0 -0.5) to (48 48 0.5)
  1 by 1 by 1 MPI processor grid
  32 atoms
  Time spent = 8.79765e-05 secs
velocity all create $T ${seed} dist gaussian mom yes rot yes
velocity all create 0.5 ${seed} dist gaussian mom yes rot yes
velocity all create 0.5 980411 dist gaussian mom yes rot yes
change_box all boundary p f p
variable cut_inner equal 0.5
variable k_n equal 100
variable k_na equal 2
variable c_n equal 0.1
variable c_t equal 0.1
variable mu equal 0.1
variable delta_ua equal 0.5
pair_style body/rounded/polygon ${c_n} ${c_t} ${mu} ${delta_ua} ${cut_inner}
pair_style body/rounded/polygon 0.1 ${c_t} ${mu} ${delta_ua} ${cut_inner}
pair_style body/rounded/polygon 0.1 0.1 ${mu} ${delta_ua} ${cut_inner}
pair_style body/rounded/polygon 0.1 0.1 0.1 ${delta_ua} ${cut_inner}
pair_style body/rounded/polygon 0.1 0.1 0.1 0.5 ${cut_inner}
pair_style body/rounded/polygon 0.1 0.1 0.1 0.5 0.5
pair_coeff * * ${k_n} ${k_na}
pair_coeff * * 100 ${k_na}
pair_coeff * * 100 2
comm_modify vel yes
neighbor 0.5 bin
neigh_modify every 1 delay 0 check yes
fix 1 all npt/body temp $T $T 1.0 x 0.001 $P 1.0 fixedpoint 0 0 0
fix 1 all npt/body temp 0.5 $T 1.0 x 0.001 $P 1.0 fixedpoint 0 0 0
fix 1 all npt/body temp 0.5 0.5 1.0 x 0.001 $P 1.0 fixedpoint 0 0 0
fix 1 all npt/body temp 0.5 0.5 1.0 x 0.001 0.1 1.0 fixedpoint 0 0 0
fix 2 all enforce2d
fix 3 all wall/body/polygon 2000 50 50 yplane 0.0 48.0
compute 1 all body/local id 1 2 3
dump 1 all local 1000 dump.polygon.* index c_1[1] c_1[2] c_1[3] c_1[4]
dump 2 all movie 1000 mov.mp4 type type zoom 1.0 adiam 1.5 body type 0 0
dump_modify 2 pad 6
thermo 100
thermo_style custom step ke pe etotal press
timestep 0.001
run ${steps}
run 10000
Neighbor list info ...
  update every 1 steps, delay 0 steps, check yes
  max neighbors/atom: 2000, page size: 100000
  master list distance cutoff = 6.15685
  ghost atom cutoff = 6.15685
  binsize = 3.07843, bins = 16 16 1
  1 neighbor lists, perpetual/occasional/extra = 1 0 0
  (1) pair body/rounded/polygon, perpetual
      attributes: half, newton on
      pair build: half/bin/atomonly/newton
      stencil: half/bin/2d/newton
      bin: standard
Per MPI rank memory allocation (min/avg/max) = 6.331 | 6.331 | 6.331 Mbytes
Step KinEng PotEng TotEng Press 
       0     0.484375         0.25     0.734375 0.0067274306 
     100   0.48491862  0.014491812   0.49941044  0.006139982 
     200    0.4875028  0.011767512   0.49927031 0.0056590656 
     300   0.49413211 0.0073072447   0.50143935 0.0052333707 
     400   0.50835947 -0.00029282977   0.50806664 0.0057808736 
     500   0.46612029 0.0022031489   0.46832344 0.0042862955 
     600    0.4681534 0.0080268267   0.47618022 0.0045166074 
     700   0.47760418  0.010162926    0.4877671 0.0046604599 
     800   0.49471109 0.0095642734   0.50427536 0.0047053927 
     900   0.52042407 0.0052911284    0.5257152 0.0046516886 
    1000   0.52292121 0.0062870032   0.52920821  0.027337769 
    1100    0.5339107 0.0052840823   0.53919479 0.0046947435 
    1200   0.55119194 0.0081319134   0.55932385 0.0050439819 
    1300   0.57653312 0.0060981808    0.5826313 0.0052528199 
    1400   0.61372058  0.011495433   0.62521602  0.019385985 
    1500   0.59506385  0.065709177   0.66077303  0.040754047 
    1600   0.60011426  0.024738479   0.62485274 0.0054633768 
    1700   0.60984264  0.014119566    0.6239622   0.00641518 
    1800   0.63332019  0.014892662   0.64821285 0.0069683886 
    1900   0.66856444    0.1073517   0.77591615 0.0068915506 
    2000   0.69823755   0.12097768   0.81921523  0.034454593 
    2100   0.58764529  0.053652433   0.64129772 0.0016889777 
    2200   0.60117822  0.053634747   0.65481296  0.002224752 
    2300   0.63221331  0.043822999   0.67603631 0.0018571327 
    2400   0.63540006  0.088450033   0.72385009  0.017539848 
    2500   0.78162328   0.11745653   0.89907982  0.016521944 
    2600    0.7911765   0.12342669   0.91460319  0.017434994 
    2700    0.7513254   0.13135579   0.88268119  0.014426266 
    2800   0.75693312   0.10343268    0.8603658  0.015491676 
    2900   0.77626409   0.10683013   0.88309423  0.031959175 
    3000   0.79334867  0.085351613   0.87870028 0.0011561573 
    3100   0.81988624   0.11496111   0.93484735 -0.00037651925 
    3200   0.83113031   0.19537959    1.0265099  0.046608612 
    3300   0.72494487   0.19790548   0.92285035  0.036906931 
    3400   0.69918907   0.14089573    0.8400848  0.013220881 
    3500   0.60013793   0.11793768   0.71807561  0.051568513 
    3600   0.57912704   0.14997442   0.72910146  0.020789368 
    3700   0.56485191   0.18856653   0.75341844  0.044793655 
    3800   0.57976655   0.20394455    0.7837111  0.048342796 
    3900   0.58918935   0.16844442   0.75763377 -0.0015327628 
    4000   0.58205794   0.23832849   0.82038643  0.015778593 
    4100   0.57627873   0.28285032   0.85912905  0.065081076 
    4200   0.56765221   0.21353948   0.78119169  0.016226577 
    4300   0.54393776   0.26211033   0.80604809  0.019704631 
    4400   0.71096717   0.25213948   0.96310666  0.045274085 
    4500   0.67039656   0.27286262   0.94325918  0.039569245 
    4600   0.58934591   0.27201366   0.86135957  0.038656886 
    4700   0.58733948   0.26079125   0.84813073  0.019199287 
    4800   0.59645098   0.21871927   0.81517025  0.031634161 
    4900   0.62152222   0.22447512   0.84599734  0.017278005 
    5000   0.61987136   0.25529413   0.87516549  0.033442963 
    5100   0.61216591   0.26089387   0.87305978  0.014724923 
    5200   0.67017699   0.21735712   0.88753411    0.0266768 
    5300   0.66277274   0.21461632   0.87738906  0.057352519 
    5400   0.66918286   0.19677298   0.86595584  0.043325642 
    5500   0.67908161   0.20466573   0.88374734  0.064041649 
    5600   0.71732871   0.23649716   0.95382587  0.060457267 
    5700   0.70028439   0.31977425    1.0200586  0.016387025 
    5800   0.63554743   0.29438081   0.92992824  0.021051589 
    5900   0.59666589   0.23512671    0.8317926 0.0095374615 
    6000   0.49358948   0.28559543   0.77918491  0.067852544 
    6100   0.51457043   0.19608529   0.71065572  0.028604146 
    6200   0.52988661   0.22111474   0.75100134  0.032136571 
    6300   0.55761421   0.21957255   0.77718676  0.054456707 
    6400   0.55924243   0.24048498   0.79972741  0.035854355 
    6500   0.62524048   0.28689943   0.91213992  0.044498719 
    6600   0.51169121   0.31814612   0.82983733   0.02078353 
    6700    0.5981343   0.33661142   0.93474572   0.15552549 
    6800   0.61876822   0.27718559   0.89595381  0.042856987 
    6900   0.55718297   0.29550029   0.85268326  0.012724995 
    7000   0.52447321   0.32824683   0.85272003  0.026527496 
    7100   0.54509263   0.30705257    0.8521452   0.06076685 
    7200   0.59328217   0.30405763    0.8973398  0.038185754 
    7300   0.53292058    0.3608832   0.89380378    0.1147391 
    7400   0.52551982   0.34519176   0.87071158  0.038951094 
    7500    0.5566484   0.37321733   0.92986573    0.0330776 
    7600   0.61814946   0.39541285    1.0135623 0.0013307864 
    7700   0.59706179   0.43865377    1.0357156   0.19772432 
    7800   0.60617661   0.37848756   0.98466417  0.019029341 
    7900   0.58595397   0.31114287   0.89709684  0.061942239 
    8000   0.65541861   0.33422334   0.98964194   0.10049693 
    8100   0.66583029   0.44493798    1.1107683   0.16718659 
    8200   0.57566382   0.27185084   0.84751466 -0.011704157 
    8300   0.63333728   0.33699908   0.97033636   0.10527877 
    8400   0.60420405   0.29552463   0.89972867 -0.0044373889 
    8500   0.63978434   0.39022169     1.030006   0.08501407 
    8600   0.65328534   0.44408532    1.0973707  0.040772466 
    8700   0.63441128   0.46315544    1.0975667   0.13246909 
    8800    0.5978499   0.38848644   0.98633634   0.10714263 
    8900   0.54934898    0.4154153   0.96476428   0.11405936 
    9000   0.59588327   0.53593447    1.1318177    0.1443938 
    9100   0.52118664   0.50416514    1.0253518   0.10203343 
    9200    0.5232356   0.48034509    1.0035807   0.13757584 
    9300    0.4874171   0.43737572   0.92479282  0.094152393 
    9400   0.56538569   0.46025604    1.0256417   0.07707174 
    9500   0.59211515    0.4234032    1.0155184    0.1387051 
    9600   0.57253001   0.58718403     1.159714   0.20817696 
    9700   0.55946729   0.35927492   0.91874221  0.011629087 
    9800   0.60245813   0.36361111   0.96606924   0.11957484 
    9900   0.50538314   0.33110475   0.83648789  0.036909768 
   10000   0.48776751   0.28890698   0.77667449 0.0095328151 
Loop time of 0.267694 on 1 procs for 10000 steps with 32 atoms

Performance: 3227565.846 tau/day, 37356.086 timesteps/s
80.3% CPU use with 1 MPI tasks x 1 OpenMP threads

MPI task timing breakdown:
Section |  min time  |  avg time  |  max time  |%varavg| %total
---------------------------------------------------------------
Pair    | 0.10228    | 0.10228    | 0.10228    |   0.0 | 38.21
Neigh   | 0.00079131 | 0.00079131 | 0.00079131 |   0.0 |  0.30
Comm    | 0.0039961  | 0.0039961  | 0.0039961  |   0.0 |  1.49
Output  | 0.074157   | 0.074157   | 0.074157   |   0.0 | 27.70
Modify  | 0.081944   | 0.081944   | 0.081944   |   0.0 | 30.61
Other   |            | 0.004531   |            |       |  1.69

Nlocal:    32 ave 32 max 32 min
Histogram: 1 0 0 0 0 0 0 0 0 0
Nghost:    17 ave 17 max 17 min
Histogram: 1 0 0 0 0 0 0 0 0 0
Neighs:    41 ave 41 max 41 min
Histogram: 1 0 0 0 0 0 0 0 0 0

Total # of neighbors = 41
Ave neighs/atom = 1.28125
Neighbor list builds = 412
Dangerous builds = 0
undump 2
Total wall time: 0:01:26
