LAMMPS (22 Aug 2018)
  using 1 OpenMP thread(s) per MPI task
units lj
atom_style sphere
boundary f f f
dimension 3
comm_modify vel yes
region box block -10 10 -10 10 -10 10 units box
create_box 2 box
Created orthogonal box = (-10 -10 -10) to (10 10 10)
  1 by 1 by 1 MPI processor grid
pair_style hybrid gran/hooke 4000.0 NULL 100.0 NULL 0.5 1
pair_coeff * * gran/hooke
region container block -6 6 -6 6 -6 6 units box
fix container all wall/gran/region hooke/history 4000.0 NULL 100.0 NULL 0.5 1 region container
neighbor 0.3 bin
neigh_modify delay 0 every 1 check yes
fix 2 all nve/sphere
fix 3 all gravity 1.0 vector 0 0 -1
region slab block -2 2 -2 2 -2 2 units box
fix ins all pour 100 2 4767548 vol 0.4 10 diam one 1.0 region slab ignore
Particle insertion: 48 every 566 steps, 100 by step 1133
compute 1 all temp
compute_modify 1 dynamic/dof yes
compute 2 all temp/sphere
compute_modify 2 dynamic/dof yes
dump 1 all movie 100 mov.mp4 type type zoom 1.4 adiam 1.0 box no 0.0 axes yes 0.9 0.03
dump_modify 1 pad 5
thermo 100
thermo_style custom step atoms temp c_1 c_2 press
thermo_modify lost ignore
compute_modify thermo_temp dynamic/dof yes
timestep 0.005
run 5000
Neighbor list info ...
  update every 1 steps, delay 0 steps, check yes
  max neighbors/atom: 2000, page size: 100000
  master list distance cutoff = 1.3
  ghost atom cutoff = 1.3
  binsize = 0.65, bins = 31 31 31
  1 neighbor lists, perpetual/occasional/extra = 1 0 0
  (1) pair gran/hooke, perpetual
      attributes: half, newton on, size
      pair build: half/size/bin/newton
      stencil: half/bin/3d/newton
      bin: standard
Per MPI rank memory allocation (min/avg/max) = 0.5855 | 0.5855 | 0.5855 Mbytes
Step Atoms Temp c_1 c_2 Press 
       0        0            0            0            0            0 
     100       21   0.54270729   0.54270729   0.26473526 0.0013567682 
     200       21   0.87606961   0.87606961   0.42735103  0.002190174 
     300       21    1.1428374    1.1428374   0.55748167 0.0028570936 
     400       21    1.3543103    1.3543103   0.66829516 0.0033857758 
     500       21    1.0677786    1.0677786   0.53582407 0.0045048164 
     600       56    0.6744286    0.6744286    0.3502938 0.0047464584 
     700       56   0.75569283   0.75569283   0.39779462 0.0051953882 
     800       56   0.61597505   0.61597505   0.32943642 0.0086022783 
     900       56   0.65260802   0.65260802   0.34474044 0.0059298996 
    1000       56   0.51624952   0.51624952   0.28326898 0.0067827337 
    1100       56   0.46050076   0.46050076   0.25656319 0.0061891094 
    1200       81   0.39112346   0.39112346   0.21690172 0.0086559316 
    1300       81   0.33302617   0.33302617   0.19109398 0.0033381104 
    1400       81    0.3933533    0.3933533   0.21221692  0.004135078 
    1500       81   0.35495297   0.35495297   0.19925984 0.0037374947 
    1600       81   0.34150607   0.34150607   0.19025812 0.0053492769 
    1700      100   0.25616473   0.25616473    0.1418628 0.0090766643 
    1800      100   0.21134358   0.21134358   0.12158833 0.0028558527 
    1900      100   0.21800629   0.21800629   0.12177721 0.0029067151 
    2000      100   0.25529862   0.25529862   0.13893922 0.0035531709 
    2100      100   0.24663098   0.24663098   0.13683794 0.0076761357 
    2200      100   0.22562372   0.22562372   0.12553626 0.0039492673 
    2300      100   0.19179275   0.19179275   0.10891237 0.0064244467 
    2400      100  0.060749881  0.060749881   0.04546927 0.00094298986 
    2500      100  0.052109212  0.052109212  0.038347003 0.0026124887 
    2600      100  0.039187751  0.039187751  0.029207006 0.0014913535 
    2700      100  0.031292664  0.031292664   0.02299866 0.0005204222 
    2800      100  0.019607246  0.019607246  0.014654623 0.0005100854 
    2900      100  0.014565149  0.014565149  0.010979417 0.00064125133 
    3000      100 0.0093442618 0.0093442618 0.0077395002 0.00049787834 
    3100      100 0.0082672776 0.0082672776 0.0067872534 0.00067249333 
    3200      100 0.0088491275 0.0088491275   0.00638914 0.00016722859 
    3300      100 0.0042044189 0.0042044189 0.0035516822 0.00026853068 
    3400      100 0.0032173132 0.0032173132 0.0028316592 0.00010155284 
    3500      100 0.0027289452 0.0027289452 0.0023338665 0.00010597806 
    3600      100 0.0022555872 0.0022555872  0.002003276 0.00010492262 
    3700      100 0.0010563227 0.0010563227 0.0011462804 6.1772182e-05 
    3800      100 0.00080237611 0.00080237611 0.00095317556 6.7826363e-05 
    3900      100 0.00080176681 0.00080176681 0.00092957847 8.1939635e-05 
    4000      100 0.00085781309 0.00085781309 0.0008977458 0.00010954866 
    4100      100 0.0010437619 0.0010437619 0.00096256257 7.8242299e-05 
    4200      100 0.0005325714 0.0005325714 0.00069247826 6.398034e-05 
    4300      100 0.00046851639 0.00046851639 0.00063096149 8.5612018e-05 
    4400      100 0.0003708884 0.0003708884 0.00052602731 5.3027416e-05 
    4500      100 0.00034866497 0.00034866497 0.00049044851 7.7467465e-05 
    4600      100 0.00034562126 0.00034562126 0.00048807483 6.7679946e-05 
    4700      100 0.00033746733 0.00033746733 0.00048247745 6.9983495e-05 
    4800      100 0.00033300155 0.00033300155 0.00047696997 0.0001248017 
    4900      100 0.00030806971 0.00030806971 0.00045091091 0.00012972305 
    5000      100 0.00029147593 0.00029147593 0.00040682023 7.7466684e-05 
Loop time of 0.281001 on 1 procs for 5000 steps with 100 atoms

Performance: 7686809.418 tau/day, 17793.540 timesteps/s
54.2% CPU use with 1 MPI tasks x 1 OpenMP threads

MPI task timing breakdown:
Section |  min time  |  avg time  |  max time  |%varavg| %total
---------------------------------------------------------------
Pair    | 0.005038   | 0.005038   | 0.005038   |   0.0 |  1.79
Neigh   | 0.0075822  | 0.0075822  | 0.0075822  |   0.0 |  2.70
Comm    | 0.00075412 | 0.00075412 | 0.00075412 |   0.0 |  0.27
Output  | 0.24062    | 0.24062    | 0.24062    |   0.0 | 85.63
Modify  | 0.024115   | 0.024115   | 0.024115   |   0.0 |  8.58
Other   |            | 0.002891   |            |       |  1.03

Nlocal:    100 ave 100 max 100 min
Histogram: 1 0 0 0 0 0 0 0 0 0
Nghost:    0 ave 0 max 0 min
Histogram: 1 0 0 0 0 0 0 0 0 0
Neighs:    159 ave 159 max 159 min
Histogram: 1 0 0 0 0 0 0 0 0 0

Total # of neighbors = 159
Ave neighs/atom = 1.59
Neighbor list builds = 309
Dangerous builds = 0
region container delete
variable theta equal (step-5000)*(4.0*PI/5000)
region container block -6 6 -6 6 -6 6 units box rotate v_theta 0 0 0 0 0 1
run 5000
Per MPI rank memory allocation (min/avg/max) = 6.087 | 6.087 | 6.087 Mbytes
Step Atoms Temp c_1 c_2 Press 
    5000      100 0.00029147593 0.00029147593 0.00040682023 7.6776352e-05 
    5100      100   0.48135793   0.48135793   0.26896339  0.014222202 
    5200      100   0.65390402   0.65390402   0.35877022 0.0096356749 
    5300      100   0.70485351   0.70485351   0.37968922 0.0098374241 
    5400      100    0.7975639    0.7975639   0.42034112  0.011383065 
    5500      100   0.88900072   0.88900072   0.46004125  0.015215558 
    5600      100   0.96755959   0.96755959   0.49633887  0.015427649 
    5700      100     1.043926     1.043926   0.53119942  0.016378194 
    5800      100    1.0781182    1.0781182   0.54824875  0.018534501 
    5900      100    1.1202647    1.1202647   0.56899631  0.016938825 
    6000      100    1.1626061    1.1626061   0.58752111  0.017504709 
    6100      100    1.1958461    1.1958461   0.60292003  0.018609336 
    6200      100    1.1982747    1.1982747   0.60498363  0.018820291 
    6300      100    1.2258074    1.2258074   0.61764512  0.019014276 
    6400      100    1.2415633    1.2415633   0.62528944  0.019232056 
    6500      100    1.2514519    1.2514519   0.63016645  0.018642987 
    6600      100    1.2620805    1.2620805   0.63455507  0.019867976 
    6700      100    1.2891674    1.2891674   0.64701312  0.020385109 
    6800      100    1.2932397    1.2932397    0.6490706  0.020036191 
    6900      100     1.301786     1.301786   0.65350024  0.019860066 
    7000      100    1.3138521    1.3138521    0.6601061  0.020007795 
    7100      100    1.3062921    1.3062921   0.65560581  0.019856216 
    7200      100    1.3068522    1.3068522   0.65534531  0.021486054 
    7300      100    1.3114519    1.3114519   0.65730804  0.020187541 
    7400      100    1.3205304    1.3205304   0.66160872   0.02081488 
    7500      100    1.3212843    1.3212843   0.66247848  0.020827163 
    7600      100     1.326505     1.326505   0.66471342  0.021021692 
    7700      100    1.3385765    1.3385765   0.67084659  0.021210332 
    7800      100    1.3464545    1.3464545   0.67473135  0.021035681 
    7900      100    1.3409743    1.3409743   0.67160208  0.021230495 
    8000      100    1.3474373    1.3474373   0.67475567  0.021474464 
    8100      100    1.3503407    1.3503407   0.67607723  0.021348421 
    8200      100    1.3475079    1.3475079   0.67442296  0.022487445 
    8300      100    1.3478601    1.3478601   0.67446716  0.021560187 
    8400      100    1.3499339    1.3499339   0.67546245  0.021760462 
    8500      100    1.3503437    1.3503437   0.67576242  0.021971091 
    8600      100    1.3496609    1.3496609   0.67544721  0.023002065 
    8700      100    1.3527991    1.3527991   0.67706167  0.021555281 
    8800      100    1.3566821    1.3566821   0.67843155  0.021724008 
    8900      100    1.3561389    1.3561389   0.67803722  0.022142366 
    9000      100    1.3602786    1.3602786   0.67996906  0.022156923 
    9100      100    1.3618635    1.3618635   0.68072145   0.02195611 
    9200      100    1.3644839    1.3644839   0.68191383  0.022832313 
    9300      100    1.3629237    1.3629237   0.68098121  0.022052882 
    9400      100    1.3636803    1.3636803    0.6813246  0.021978642 
    9500      100    1.3636468    1.3636468   0.68139638  0.021777836 
    9600      100    1.3635036    1.3635036   0.68148072  0.021816734 
    9700      100    1.3651818    1.3651818   0.68251285  0.021903964 
    9800      100    1.3711789    1.3711789   0.68531545  0.022689227 
    9900      100    1.3753537    1.3753537   0.68745239  0.021972669 
   10000      100    1.3707863    1.3707863   0.68529829  0.022211737 
Loop time of 0.368354 on 1 procs for 5000 steps with 100 atoms

Performance: 5863923.070 tau/day, 13573.896 timesteps/s
75.1% CPU use with 1 MPI tasks x 1 OpenMP threads

MPI task timing breakdown:
Section |  min time  |  avg time  |  max time  |%varavg| %total
---------------------------------------------------------------
Pair    | 0.02237    | 0.02237    | 0.02237    |   0.0 |  6.07
Neigh   | 0.019878   | 0.019878   | 0.019878   |   0.0 |  5.40
Comm    | 0.00097418 | 0.00097418 | 0.00097418 |   0.0 |  0.26
Output  | 0.2139     | 0.2139     | 0.2139     |   0.0 | 58.07
Modify  | 0.10739    | 0.10739    | 0.10739    |   0.0 | 29.15
Other   |            | 0.003849   |            |       |  1.04

Nlocal:    100 ave 100 max 100 min
Histogram: 1 0 0 0 0 0 0 0 0 0
Nghost:    0 ave 0 max 0 min
Histogram: 1 0 0 0 0 0 0 0 0 0
Neighs:    200 ave 200 max 200 min
Histogram: 1 0 0 0 0 0 0 0 0 0

Total # of neighbors = 200
Ave neighs/atom = 2
Neighbor list builds = 628
Dangerous builds = 0
region container delete
region container block -6 6 -6 6 -6 6 units box
run 5000
Per MPI rank memory allocation (min/avg/max) = 6.087 | 6.087 | 6.087 Mbytes
Step Atoms Temp c_1 c_2 Press 
   10000      100    1.3707863    1.3707863   0.68529829  0.022158711 
   10100      100   0.22496037   0.22496037   0.13833675  0.014079162 
   10200      100   0.11925346   0.11925346  0.087540399 0.0020679395 
   10300      100  0.082344662  0.082344662  0.070618817 0.0016196993 
   10400      100  0.056184195  0.056184195   0.04956364 0.0031634836 
   10500      100  0.037024238  0.037024238  0.033539541 0.00072230164 
   10600      100  0.026892328  0.026892328  0.025049545 0.00037409274 
   10700      100  0.021473018  0.021473018  0.020849578 0.00080484048 
   10800      100  0.017444329  0.017444329  0.017508574 0.00036339199 
   10900      100  0.014191404  0.014191404  0.014408467 0.00035449285 
   11000      100  0.011090521  0.011090521  0.011866105 0.00013720717 
   11100      100 0.0093725957 0.0093725957 0.0099733327 0.00061218372 
   11200      100 0.0078040676 0.0078040676 0.0084133644 0.00054410602 
   11300      100 0.0069038466 0.0069038466 0.0072313049 0.0001749224 
   11400      100 0.0059899155 0.0059899155 0.0066014697 9.5374731e-05 
   11500      100 0.0054914689 0.0054914689 0.0059195257 9.3132213e-05 
   11600      100  0.005409455  0.005409455 0.0057163762 0.00020785784 
   11700      100 0.0037093531 0.0037093531 0.0043333425 0.00020141573 
   11800      100 0.0033660044 0.0033660044 0.0041211541 6.0691811e-05 
   11900      100 0.0029041429 0.0029041429  0.003229233 8.9931965e-05 
   12000      100 0.0026861558 0.0026861558 0.0029792541 3.2579657e-05 
   12100      100 0.0023633779 0.0023633779 0.0027042894 2.2754694e-05 
   12200      100 0.0020493962 0.0020493962 0.0024295073 0.00014119985 
   12300      100 0.0016348616 0.0016348616 0.0020796654 3.4045533e-05 
   12400      100 0.0014776737 0.0014776737 0.0018988282 0.00049342364 
   12500      100 0.0013343973 0.0013343973 0.0017359684 6.2506974e-05 
   12600      100 0.0012366212 0.0012366212 0.0016450547 1.5303187e-05 
   12700      100 0.0011996665 0.0011996665 0.0015683876 8.7356893e-05 
   12800      100 0.0011314496 0.0011314496 0.0014666983 1.9359452e-05 
   12900      100 0.0010899134 0.0010899134 0.0012998755 -3.2629972e-05 
   13000      100  0.000980552  0.000980552 0.0011786959 1.2134331e-05 
   13100      100 0.00091653156 0.00091653156 0.0011027531 1.1342078e-05 
   13200      100 0.00090710641 0.00090710641 0.0010840755 1.1225442e-05 
   13300      100 0.00087129875 0.00087129875 0.0010611018 3.9926592e-05 
   13400      100 0.00066051071 0.00066051071 0.00083904119 3.3282524e-05 
   13500      100 0.00061176623 0.00061176623 0.00079616803 9.8254928e-06 
   13600      100 0.00057423098 0.00057423098 0.00076300714 1.9372928e-05 
   13700      100 0.00053859563 0.00053859563 0.0007178291 6.4919808e-05 
   13800      100 0.00050754666 0.00050754666 0.00069678852 1.8762736e-05 
   13900      100 0.00047858262 0.00047858262 0.00066930081 1.325085e-05 
   14000      100 0.00042299935 0.00042299935 0.00062628604 5.234617e-06 
   14100      100 0.00042013813 0.00042013813 0.00062412023 5.1992094e-06 
   14200      100 0.00041199276 0.00041199276 0.00061659424 0.00010254335 
   14300      100 0.00039633928 0.00039633928 0.00059100286 4.9046986e-06 
   14400      100 0.00038789883 0.00038789883 0.0005799562 5.4679124e-05 
   14500      100 0.00037466613 0.00037466613 0.00056995556 4.6364934e-06 
   14600      100 0.0003650614 0.0003650614 0.00055729321 1.2171438e-05 
   14700      100 0.00035945747 0.00035945747 0.00055229278 4.4482863e-06 
   14800      100 0.00035297023 0.00035297023 0.00054694161 2.7660512e-05 
   14900      100 0.00034604479 0.00034604479 0.00054158604 4.3405274e-06 
   15000      100 0.00033214079 0.00033214079 0.00051147028 4.1102422e-06 
Loop time of 0.277809 on 1 procs for 5000 steps with 100 atoms

Performance: 7775128.744 tau/day, 17997.983 timesteps/s
70.3% CPU use with 1 MPI tasks x 1 OpenMP threads

MPI task timing breakdown:
Section |  min time  |  avg time  |  max time  |%varavg| %total
---------------------------------------------------------------
Pair    | 0.0063241  | 0.0063241  | 0.0063241  |   0.0 |  2.28
Neigh   | 0.003088   | 0.003088   | 0.003088   |   0.0 |  1.11
Comm    | 0.00083351 | 0.00083351 | 0.00083351 |   0.0 |  0.30
Output  | 0.22326    | 0.22326    | 0.22326    |   0.0 | 80.36
Modify  | 0.040496   | 0.040496   | 0.040496   |   0.0 | 14.58
Other   |            | 0.003806   |            |       |  1.37

Nlocal:    100 ave 100 max 100 min
Histogram: 1 0 0 0 0 0 0 0 0 0
Nghost:    0 ave 0 max 0 min
Histogram: 1 0 0 0 0 0 0 0 0 0
Neighs:    152 ave 152 max 152 min
Histogram: 1 0 0 0 0 0 0 0 0 0

Total # of neighbors = 152
Ave neighs/atom = 1.52
Neighbor list builds = 84
Dangerous builds = 0
region container delete
variable theta equal (step-15000)*(4.0*PI/5000)
region container block -6 6 -6 6 -6 6 units box rotate v_theta 0 0 0 1 1 1
run 5000
Per MPI rank memory allocation (min/avg/max) = 6.087 | 6.087 | 6.087 Mbytes
Step Atoms Temp c_1 c_2 Press 
   15000      100 0.00033214079 0.00033214079 0.00051147028 4.1102422e-06 
   15100      100   0.92850112   0.92850112   0.61066015  0.014164778 
   15200      100     0.970809     0.970809   0.63976012  0.015978868 
   15300      100    1.0829146    1.0829146   0.69635579  0.016363093 
   15400      100    1.2526797    1.2526797   0.82511278  0.025425284 
   15500      100    1.6148016    1.6148016    1.0224342  0.028398587 
   15600      100    1.8439777    1.8439777    1.1131034  0.026951654 
   15700      100    2.0944914    2.0944914    1.2290614  0.035248806 
   15800      100    2.1897914    2.1897914     1.260224  0.041566661 
   15900      100    2.4189365    2.4189365    1.3426922   0.03268456 
   16000      100    2.3069021    2.3069021    1.2975061  0.030046747 
   16100      100    2.3166321    2.3166321    1.3000227  0.030552882 
   16200      100    2.4064081    2.4064081    1.3441952  0.035684875 
   16300      100    2.4391161    2.4391161    1.3575618  0.034185978 
   16400      100    2.5439073    2.5439073    1.3927353   0.03585541 
   16500      100    2.7230632    2.7230632    1.4869695  0.035265469 
   16600      100    2.8183535    2.8183535    1.5349843  0.037721244 
   16700      100    2.8737683    2.8737683    1.5606745   0.03635692 
   16800      100    3.0842449    3.0842449    1.6686923  0.043549433 
   16900      100    3.3203115    3.3203115    1.7805554  0.043074805 
   17000      100    3.3465458    3.3465458    1.7837141  0.042432397 
   17100      100    3.3308459    3.3308459    1.7749571  0.048493039 
   17200      100    3.5549186    3.5549186    1.8887277  0.045194617 
   17300      100    3.3415396    3.3415396    1.7864069  0.050772307 
   17400      100    3.4479829    3.4479829    1.8510415  0.050025998 
   17500      100    3.4650362    3.4650362    1.8735782   0.04664457 
   17600      100    3.3368705    3.3368705    1.8097529  0.045407145 
   17700      100    3.5017335    3.5017335    1.8957956  0.050346763 
   17800      100    3.5358425    3.5358425     1.897211  0.045839345 
   17900      100    3.4173883    3.4173883    1.8421941  0.045331345 
   18000      100    3.3260338    3.3260338    1.8054333  0.047369787 
   18100      100    3.2529168    3.2529168    1.7738122  0.042236946 
   18200      100    3.3559533    3.3559533    1.8083671  0.050186953 
   18300      100     3.616886     3.616886    1.9362432  0.048405522 
   18400      100    3.7286298    3.7286298    1.9949443  0.047941957 
   18500      100    3.8585754    3.8585754    2.0685738   0.04862462 
   18600      100    3.9105379    3.9105379    2.1002632  0.055548059 
   18700      100    3.8206439    3.8206439     2.062729  0.059518328 
   18800      100    3.9860929    3.9860929    2.1302729  0.054536807 
   18900      100    4.2557784    4.2557784    2.2528546  0.060721869 
   19000      100    3.9976008    3.9976008    2.1290575  0.053545845 
   19100      100    4.2330367    4.2330367    2.2656347  0.053930859 
   19200      100    4.1526526    4.1526526    2.2057431  0.064947591 
   19300      100    4.2638321    4.2638321    2.2644435  0.057841511 
   19400      100    4.0902351    4.0902351    2.1773439  0.069259716 
   19500      100    4.2166361    4.2166361    2.2397159  0.056028851 
   19600      100    4.0379309    4.0379309    2.1543927  0.066255787 
   19700      100    3.8256914    3.8256914    2.0633964  0.052792651 
   19800      100    3.8862459    3.8862459    2.0805275  0.057433478 
   19900      100    3.7932053    3.7932053    2.0545793  0.059951711 
   20000      100    3.8049651    3.8049651    2.0683452  0.051229474 
Loop time of 0.34263 on 1 procs for 5000 steps with 100 atoms

Performance: 6304178.182 tau/day, 14593.005 timesteps/s
76.9% CPU use with 1 MPI tasks x 1 OpenMP threads

MPI task timing breakdown:
Section |  min time  |  avg time  |  max time  |%varavg| %total
---------------------------------------------------------------
Pair    | 0.0096679  | 0.0096679  | 0.0096679  |   0.0 |  2.82
Neigh   | 0.029043   | 0.029043   | 0.029043   |   0.0 |  8.48
Comm    | 0.0011809  | 0.0011809  | 0.0011809  |   0.0 |  0.34
Output  | 0.21681    | 0.21681    | 0.21681    |   0.0 | 63.28
Modify  | 0.081869   | 0.081869   | 0.081869   |   0.0 | 23.89
Other   |            | 0.004061   |            |       |  1.19

Nlocal:    100 ave 100 max 100 min
Histogram: 1 0 0 0 0 0 0 0 0 0
Nghost:    0 ave 0 max 0 min
Histogram: 1 0 0 0 0 0 0 0 0 0
Neighs:    150 ave 150 max 150 min
Histogram: 1 0 0 0 0 0 0 0 0 0

Total # of neighbors = 150
Ave neighs/atom = 1.5
Neighbor list builds = 913
Dangerous builds = 0
region container delete
region container block -6 6 -6 6 -6 6 units box
run 5000
Per MPI rank memory allocation (min/avg/max) = 6.087 | 6.087 | 6.087 Mbytes
Step Atoms Temp c_1 c_2 Press 
   20000      100    3.8049651    3.8049651    2.0683452   0.05118853 
   20100      100    1.1787867    1.1787867   0.72667953  0.020497924 
   20200      100   0.91933123   0.91933123   0.57072979   0.01132641 
   20300      100   0.94669708   0.94669708    0.5811582  0.012772526 
   20400      100    1.0087732    1.0087732   0.60962068  0.015649113 
   20500      100    1.0572005    1.0572005   0.62731313  0.015976999 
   20600      100     1.094212     1.094212   0.64457141  0.016512686 
   20700      100    1.1337222    1.1337222   0.65599695  0.015342912 
   20800      100   0.97251327   0.97251327   0.56976657  0.015475067 
   20900      100   0.76922798   0.76922798   0.45055852  0.016191026 
   21000      100    0.5952509    0.5952509   0.34664263 0.0088926363 
   21100      100   0.34815987   0.34815987   0.21212212 0.0057985175 
   21200      100   0.19492782   0.19492782   0.12933327 0.0034701889 
   21300      100   0.12682043   0.12682043  0.089784736 0.0030327314 
   21400      100  0.089962896  0.089962896  0.066777131 0.0021259328 
   21500      100  0.059454202  0.059454202  0.047667704  0.002711749 
   21600      100  0.055094847  0.055094847  0.043651043  0.001316943 
   21700      100  0.051118423  0.051118423  0.039248888 0.0012243101 
   21800      100  0.044638726  0.044638726  0.034142163 0.0013828409 
   21900      100  0.035478507  0.035478507  0.028403547 0.0012810206 
   22000      100   0.02895876   0.02895876  0.023731466 0.0012140146 
   22100      100  0.024777589  0.024777589  0.020516609 0.0011119894 
   22200      100  0.018130529  0.018130529  0.014762621 0.00043667717 
   22300      100  0.016857962  0.016857962  0.013639537 0.00067621144 
   22400      100  0.013442099  0.013442099  0.011366148 0.00055030345 
   22500      100  0.013965185  0.013965185  0.011391107 0.0010620398 
   22600      100  0.013512988  0.013512988  0.010749664 0.00051902541 
   22700      100   0.01020953   0.01020953  0.008503785 0.00044411237 
   22800      100 0.0079978495 0.0079978495 0.0068795431 0.00042954827 
   22900      100 0.0078274237 0.0078274237 0.0065844854 0.00030738378 
   23000      100  0.007691639  0.007691639 0.0064428738  0.000363016 
   23100      100  0.007464535  0.007464535  0.006079571 0.00026191684 
   23200      100 0.0061769276 0.0061769276 0.0050647352 0.00047236736 
   23300      100 0.0038786618 0.0038786618 0.0036621259 0.00021850974 
   23400      100 0.0035620387 0.0035620387 0.0033742553 0.00013841502 
   23500      100 0.0036284732 0.0036284732 0.0032712698 0.00016345571 
   23600      100 0.0047393016 0.0047393016 0.0037197701 0.00010766224 
   23700      100 0.0029290088 0.0029290088 0.0024910567 6.4899284e-05 
   23800      100 0.0023243371 0.0023243371 0.0020828694 5.0430349e-05 
   23900      100 0.0020372948 0.0020372948 0.0018457389 0.00015442436 
   24000      100 0.0018285005 0.0018285005 0.0016692726 0.00012021473 
   24100      100 0.0016387599 0.0016387599 0.0015168507 4.4072925e-05 
   24200      100 0.0015418756 0.0015418756 0.0014118373 2.7724519e-05 
   24300      100 0.0013286552 0.0013286552 0.0012252993 4.2144916e-05 
   24400      100 0.0012840056 0.0012840056 0.0011861607 4.2079039e-05 
   24500      100 0.0012132841 0.0012132841 0.0011270143 1.2594774e-05 
   24600      100 0.0011563702 0.0011563702 0.0010848095 0.00029993545 
   24700      100 0.0010107974 0.0010107974 0.0009696426 2.430884e-05 
   24800      100 0.0010896387 0.0010896387 0.0010100042 2.6286989e-05 
   24900      100   0.00142525   0.00142525 0.0011699727 1.7637469e-05 
   25000      100 0.0007793737 0.0007793737 0.00078889182 2.0981339e-05 
Loop time of 0.252612 on 1 procs for 5000 steps with 100 atoms

Performance: 8550666.889 tau/day, 19793.210 timesteps/s
69.2% CPU use with 1 MPI tasks x 1 OpenMP threads

MPI task timing breakdown:
Section |  min time  |  avg time  |  max time  |%varavg| %total
---------------------------------------------------------------
Pair    | 0.0060954  | 0.0060954  | 0.0060954  |   0.0 |  2.41
Neigh   | 0.0086269  | 0.0086269  | 0.0086269  |   0.0 |  3.42
Comm    | 0.00073266 | 0.00073266 | 0.00073266 |   0.0 |  0.29
Output  | 0.2063     | 0.2063     | 0.2063     |   0.0 | 81.67
Modify  | 0.027864   | 0.027864   | 0.027864   |   0.0 | 11.03
Other   |            | 0.002995   |            |       |  1.19

Nlocal:    100 ave 100 max 100 min
Histogram: 1 0 0 0 0 0 0 0 0 0
Nghost:    0 ave 0 max 0 min
Histogram: 1 0 0 0 0 0 0 0 0 0
Neighs:    159 ave 159 max 159 min
Histogram: 1 0 0 0 0 0 0 0 0 0

Total # of neighbors = 159
Ave neighs/atom = 1.59
Neighbor list builds = 305
Dangerous builds = 0
undump 1
Total wall time: 2:18:17
