ITEM: TIMESTEP
0
ITEM: NUMBER OF ENTRIES
0
ITEM: BOX BOUNDS pp pp fm
0 50
0 50
0 50
ITEM: ENTRIES index c_1[1] c_1[2] c_1[3] c_1[4] 
ITEM: TIMESTEP
1000
ITEM: NUMBER OF ENTRIES
554
ITEM: BOX BOUNDS pp pp fm
0 50
0 50
0 50
ITEM: ENTRIES index c_1[1] c_1[2] c_1[3] c_1[4] 
1 3 31.9124 30.8031 31.3469 
2 3 35.5905 30.6066 32.9068 
3 1 23.93 10.3037 28.7072 
4 1 25.459 10.9712 29.8102 
5 1 26.0705 12.102 28.2781 
6 1 24.5415 11.4345 27.1751 
7 1 22.795 11.8122 29.3676 
8 1 24.324 12.4797 30.4706 
9 1 24.9356 13.6105 28.9385 
10 1 23.4066 12.943 27.8356 
11 3 37.9059 22.0235 30.5802 
12 3 41.7956 21.2324 31.0741 
13 2 34.3821 14.2309 34.3356 
14 2 35.3052 16.3779 32.7424 
15 2 33.0458 14.8832 31.9297 
16 2 35.6199 13.714 31.8455 
17 1 31.7572 9.34628 25.7287 
18 1 30.3371 9.9111 24.4386 
19 1 29.3722 10.8553 25.9142 
20 1 30.7923 10.2905 27.2043 
21 1 32.783 11.0165 25.3308 
22 1 31.3629 11.5813 24.0407 
23 1 30.3979 12.5255 25.5163 
24 1 31.818 11.9606 26.8064 
25 3 10.3359 4.32332 28.3673 
26 3 9.32682 7.73562 26.5404 
27 4 9.71165 33.7472 34.3002 
28 3 35.4722 11.3328 35.2101 
29 3 38.34 10.3847 32.5879 
30 4 21.4828 32.2024 29.4381 
31 2 5.10989 37.0007 32.417 
32 2 5.34303 35.7583 29.8867 
33 2 5.5553 34.2128 32.246 
34 2 7.61664 36.0197 31.5488 
35 2 16.9183 41.7152 32.5846 
36 2 16.779 39.8065 30.5019 
37 2 14.8307 41.8491 30.6808 
38 2 14.8719 39.7627 32.5902 
39 4 8.08498 14.2599 34.2016 
40 3 40.3154 43.6504 33.0243 
41 3 43.9488 44.9386 31.957 
42 1 20.1167 27.8501 27.2114 
43 1 21.6072 27.4892 28.4952 
44 1 21.4354 25.5279 28.1433 
45 1 19.9449 25.8888 26.8595 
46 1 21.4392 28.0021 25.7188 
47 1 22.9297 27.6412 27.0026 
48 1 22.7579 25.68 26.6507 
49 1 21.2674 26.0409 25.3669 
50 4 34.808 27.5045 28.6199 
51 1 32.4051 41.191 31.7554 
52 1 32.9609 39.3285 31.2838 
53 1 31.4055 39.1805 30.0352 
54 1 30.8498 41.0429 30.5067 
55 1 33.533 41.9046 30.2659 
56 1 34.0887 40.0421 29.7943 
57 1 32.5334 39.8941 28.5457 
58 1 31.9776 41.7566 29.0172 
59 2 19.4954 11.1884 22.3733 
60 2 19.506 10.9412 19.5557 
61 2 17.625 9.49492 21.0952 
62 2 20.3606 8.78029 21.1682 
63 3 3.25991 14.9307 23.2171 
64 3 7.00775 13.6982 23.8764 
65 1 11.6048 44.7649 32.762 
66 1 10.9899 42.9548 32.1743 
67 1 9.21454 43.2779 33.0366 
68 1 9.82942 45.088 33.6244 
69 1 10.9193 45.5518 31.0559 
70 1 10.3044 43.7417 30.4681 
71 1 8.52901 44.0647 31.3305 
72 1 9.14388 45.8748 31.9183 
73 4 40.421 5.73056 34.4785 
74 4 12.2722 28.7372 28.3029 
75 1 30.0252 35.5344 34.2681 
76 1 29.2491 33.985 35.2666 
77 1 27.6036 34.079 34.1336 
78 1 28.3797 35.6285 33.1351 
79 1 30.8559 34.2733 32.9568 
80 1 30.0798 32.7238 33.9553 
81 1 28.4343 32.8179 32.8224 
82 1 29.2104 34.3673 31.8238 
83 4 5.48533 41.9914 23.1188 
84 1 24.5055 30.4474 22.0631 
85 1 24.553 28.5481 21.4383 
86 1 25.3353 29.1409 19.6957 
87 1 25.2878 31.0402 20.3205 
88 1 26.3455 30.2444 22.8201 
89 1 26.393 28.3451 22.1953 
90 1 27.1753 28.9379 20.4527 
91 1 27.1278 30.8372 21.0775 
92 1 39.6173 45.4106 26.4382 
93 1 41.2222 44.912 27.5224 
94 1 40.0713 43.7849 28.7078 
95 1 38.4664 44.2835 27.6236 
96 1 39.9327 43.8355 25.2468 
97 1 41.5377 43.3368 26.331 
98 1 40.3868 42.2098 27.5164 
99 1 38.7818 42.7084 26.4322 
100 4 6.02472 27.3973 32.9329 
101 4 25.8056 44.0217 32.9821 
102 4 17.9983 17.8533 32.5511 
103 2 16.7327 27.6423 30.4178 
104 2 16.9501 25.7337 28.3417 
105 2 14.84 27.617 28.3162 
106 2 14.8547 25.5356 30.2312 
107 2 13.63 45.5376 26.6439 
108 2 11.0612 44.4282 26.2307 
109 2 12.2289 44.3707 28.8062 
110 2 13.2671 42.7344 26.7459 
111 3 10.3396 9.86425 35.1114 
112 3 9.68989 6.17925 33.6977 
113 1 17.9984 28.7888 23.3006 
114 1 19.749 28.096 23.9754 
115 1 18.8409 26.4382 24.6291 
116 1 17.0903 27.131 23.9542 
117 1 18.3313 27.9103 21.535 
118 1 20.0819 27.2175 22.2098 
119 1 19.1739 25.5597 22.8635 
120 1 17.4233 26.2525 22.1886 
121 4 10.5991 29.7107 34.0691 
122 3 16.063 35.0456 21.2123 
123 3 20.063 35.0277 21.2287 
124 2 43.4982 32.2258 23.9773 
125 2 43.5428 32.9967 26.6983 
126 2 45.9585 32.376 25.3645 
127 2 44.1129 30.3219 25.9767 
128 2 17.3256 30.947 33.4666 
129 2 16.0613 30.9148 30.9366 
130 2 17.6799 33.1117 31.6808 
131 2 15.1776 32.7092 32.9364 
132 1 29.9263 19.0952 33.4103 
133 1 29.5549 17.1444 33.6478 
134 1 27.7117 17.4064 32.9172 
135 1 28.0831 19.3572 32.6797 
136 1 30.6078 18.7407 31.5637 
137 1 30.2365 16.7899 31.8012 
138 1 28.3932 17.0519 31.0706 
139 1 28.7646 19.0027 30.8331 
140 2 19.7936 38.5366 35.5777 
141 2 20.2552 38.3215 32.7955 
142 2 18.4539 36.5528 34.0711 
143 2 21.2326 36.3294 34.5495 
144 3 6.77506 25.3441 27.4374 
145 3 9.41043 24.1858 30.2147 
146 4 43.5596 36.7767 27.4416 
147 1 17.8751 22.3005 31.9908 
148 1 17.7512 20.6014 30.9431 
149 1 17.086 21.6263 29.3597 
150 1 17.2099 23.3254 30.4074 
151 1 19.7572 22.5508 31.3622 
152 1 19.6333 20.8518 30.3145 
153 1 18.9681 21.8766 28.7311 
154 1 19.092 23.5757 29.7788 
155 4 16.018 23.7657 26.0388 
156 1 45.5065 31.4458 34.1109 
157 1 45.2678 29.4716 34.3243 
158 1 43.3197 29.746 34.6841 
159 1 43.5584 31.7202 34.4707 
160 1 45.1221 31.2809 32.1552 
161 1 44.8834 29.3067 32.3685 
162 1 42.9353 29.5811 32.7283 
163 1 43.174 31.5553 32.515 
164 3 9.92885 18.9456 33.5754 
165 3 11.6395 20.5779 30.3491 
166 3 24.7185 29.9061 31.0815 
167 3 27.4191 27.0774 30.2417 
168 1 13.5256 33.0672 26.3776 
169 1 13.2353 31.3333 25.4239 
170 1 11.2637 31.5048 25.7123 
171 1 11.5539 33.2386 26.666 
172 1 13.3574 34.0492 24.6434 
173 1 13.0671 32.3153 23.6898 
174 1 11.0954 32.4868 23.9781 
175 1 11.3857 34.2206 24.9318 
176 1 18.6383 13.3526 27.8552 
177 1 18.4519 13.4154 25.8649 
178 1 16.5079 12.9764 26.0331 
179 1 16.6943 12.9136 28.0234 
180 1 18.2067 15.3028 27.9572 
181 1 18.0203 15.3656 25.9669 
182 1 16.0763 14.9266 26.1351 
183 1 16.2627 14.8638 28.1254 
184 3 23.429 35.2897 30.279 
185 3 27.4004 34.9268 30.5886 
186 4 7.02048 41.6781 34.2828 
187 3 21.6472 6.09242 26.2708 
188 3 18.5785 6.59515 28.7868 
189 2 10.3156 12.0998 28.5179 
190 2 8.43714 12.174 26.4046 
191 2 7.98978 13.6927 28.7485 
192 2 7.78644 10.8727 28.8302 
193 1 29.0081 6.63143 34.7694 
194 1 29.5033 4.78347 34.1866 
195 1 27.5748 4.37182 33.853 
196 1 27.0795 6.21979 34.4358 
197 1 29.1963 7.27608 32.8856 
198 1 29.6916 5.42811 32.3027 
199 1 27.763 5.01647 31.9691 
200 1 27.2678 6.86443 32.552 
201 2 36.0287 44.7153 35.2202 
202 2 36.029 43.3269 32.756 
203 2 34.3547 45.5789 33.1102 
204 2 33.7849 43.1651 34.4701 
205 4 38.0605 13.4531 24.2934 
206 1 38.8463 26.63 33.4992 
207 1 39.4157 24.9298 32.6132 
208 1 37.6147 24.1386 32.9741 
209 1 37.0453 25.8388 33.8601 
210 1 38.1889 27.3251 31.7429 
211 1 38.7584 25.6249 30.8569 
212 1 36.9573 24.8337 31.2178 
213 1 36.3879 26.5339 32.1038 
214 4 26.3742 40.392 27.8109 
215 4 30.829 25.8679 30.0128 
216 1 41.6118 16.5762 35.2976 
217 1 41.5664 14.5809 35.4261 
218 1 39.5673 14.6288 35.4639 
219 1 39.6127 16.6242 35.3354 
220 1 41.571 16.4487 33.3021 
221 1 41.5256 14.4533 33.4305 
222 1 39.5265 14.5012 33.4684 
223 1 39.5719 16.4966 33.3399 
224 1 29.5937 14.3295 33.9508 
225 1 29.8594 12.4322 33.3767 
226 1 27.9686 12.3634 32.7287 
227 1 27.7028 14.2607 33.3029 
228 1 30.1886 14.9584 32.1479 
229 1 30.4544 13.0611 31.5737 
230 1 28.5635 12.9923 30.9258 
231 1 28.2977 14.8896 31.4999 
232 2 42.734 34.4755 34.8545 
233 2 44.8844 34.3159 33.0242 
234 2 44.3475 36.7467 34.3669 
235 2 42.577 35.8143 32.368 
236 2 29.9781 41.9802 33.2393 
237 2 28.437 39.7099 32.5532 
238 2 27.1544 42.1427 33.2137 
239 2 28.4666 40.645 35.2224 
240 3 26.5492 23.4774 32.563 
241 3 29.5717 21.0351 33.5114 
242 4 5.31726 16.7594 30.8538 
243 4 44.1908 44.2619 25.8989 
244 4 16.5464 24.6393 34.4371 
245 1 34.4498 6.35521 31.7709 
246 1 34.3133 4.36253 31.668 
247 1 32.3181 4.4976 31.6999 
248 1 32.4546 6.49028 31.8028 
249 1 34.425 6.46001 29.7738 
250 1 34.2885 4.46733 29.6709 
251 1 32.2933 4.6024 29.7028 
252 1 32.4298 6.59508 29.8057 
253 4 34.9225 32.2551 22.1372 
254 2 14.9857 42.3551 25.5324 
255 2 15.6808 39.6439 25.1247 
256 2 12.9613 40.4213 25.1293 
257 2 14.441 40.4383 27.5397 
258 4 40.9388 28.2994 29.0375 
259 4 39.1353 36.8486 34.1254 
260 1 36.7856 35.8815 32.7204 
261 1 36.0612 34.042 32.4175 
262 1 34.2035 34.7815 32.37 
263 1 34.928 36.6209 32.6729 
264 1 36.9413 36.1456 30.744 
265 1 36.2169 34.3062 30.4411 
266 1 34.3592 35.0456 30.3937 
267 1 35.0836 36.885 30.6965 
268 4 29.1446 30.4107 34.4127 
269 2 20.9269 40.6636 28.1678 
270 2 22.2546 38.332 27.2729 
271 2 20.5308 39.7368 25.5251 
272 2 19.46 38.2897 27.7067 
273 4 20.8264 9.16154 33.773 
274 2 31.8125 19.2799 32.968 
275 2 34.1858 20.1097 34.2636 
276 2 32.363 22.0364 33.2813 
277 2 33.8909 20.4855 31.4758 
278 2 12.1239 12.3629 31.0631 
279 2 14.2435 12.3512 32.9358 
280 2 12.4115 10.1976 32.8599 
281 2 11.5816 12.7272 33.815 
282 4 37.5223 7.61782 26.894 
283 1 16.6044 12.7227 32.0549 
284 1 17.3902 12.9748 33.8766 
285 1 16.6172 11.2225 34.4526 
286 1 15.8314 10.9704 32.6308 
287 1 18.2732 11.7922 31.4638 
288 1 19.059 12.0444 33.2856 
289 1 18.286 10.292 33.8615 
290 1 17.5002 10.0399 32.0397 
291 2 43.7691 4.47355 32.5323 
292 2 45.9366 4.81127 30.7468 
293 2 45.0751 6.97586 32.3506 
294 2 43.4581 6.06621 30.2156 
295 2 45.841 27.346 33.8667 
296 2 45.904 25.2874 31.9281 
297 2 43.8751 27.2559 31.8351 
298 2 43.8709 25.3167 33.8942 
299 3 45.0161 11.5284 22.2602 
300 3 44.98 12.2874 18.333 
301 4 33.6394 18.2762 27.9701 
302 4 20.8407 18.0168 33.4125 
303 4 29.4755 44.519 25.4246 
304 3 28.8882 26.1322 23.635 
305 3 32.4595 24.9398 22.2842 
306 2 19.0163 28.4709 33.5476 
307 2 21.8102 28.1164 33.8089 
308 2 20.7596 30.671 33.2004 
309 2 20.6793 28.6109 31.264 
310 2 30.9575 33.2727 28.4355 
311 2 31.4308 30.6828 27.4018 
312 2 28.7863 31.6674 27.5938 
313 2 30.218 30.9934 29.9381 
314 3 37.6654 16.8319 24.5505 
315 3 40.3268 19.3981 26.0775 
316 4 25.334 38.7834 22.5206 
317 4 10.7392 23.9158 25.3736 
318 4 44.2599 5.99441 21.748 
319 4 11.7629 38.6133 33.6996 
320 3 8.98289 21.084 22.9027 
321 3 7.20236 24.3706 21.4788 
322 2 37.8261 32.5481 33.8376 
323 2 40.4416 31.4715 33.8441 
324 2 38.3366 30.0654 32.5824 
325 2 38.4123 30.2662 35.4027 
326 4 24.3917 40.5919 32.626 
327 4 34.3499 9.59036 27.654 
328 2 18.8186 36.4945 28.1475 
329 2 19.1567 34.3068 26.3869 
330 2 17.0837 36.1775 25.9363 
331 2 16.9266 34.3922 28.1244 
332 4 17.9739 17.6706 20.1331 
333 2 20.8336 44.1509 27.4907 
334 2 20.1573 42.6232 25.2084 
335 2 18.6622 44.9351 25.8566 
336 2 18.4557 42.6195 27.4677 
337 1 33.4719 11.3927 35.0101 
338 1 32.8601 9.56049 34.4917 
339 1 31.0702 9.92813 35.3048 
340 1 31.682 11.7603 35.8233 
341 1 32.8224 12.1054 33.258 
342 1 32.2105 10.2732 32.7395 
343 1 30.4206 10.6409 33.5526 
344 1 31.0325 12.473 34.0711 
345 1 12.2768 13.9335 21.8075 
346 1 11.1707 12.7512 20.6333 
347 1 10.3648 14.3643 19.7683 
348 1 11.4708 15.5466 20.9425 
349 1 13.7352 13.9283 20.4389 
350 1 12.6291 12.7459 19.2647 
351 1 11.8232 14.3591 18.3997 
352 1 12.9293 15.5414 19.5739 
353 1 21.9856 14.8299 24.3332 
354 1 22.5971 16.7322 24.419 
355 1 22.5825 16.827 22.4213 
356 1 21.971 14.9247 22.3355 
357 1 20.0815 15.44 24.3761 
358 1 20.6929 17.3423 24.4619 
359 1 20.6783 17.4371 22.4642 
360 1 20.0668 15.5348 22.3784 
361 1 33.5534 36.1462 27.09 
362 1 33.3657 35.1951 25.3406 
363 1 32.8704 33.5155 26.3069 
364 1 33.058 34.4666 28.0562 
365 1 31.6248 36.6701 27.012 
366 1 31.4372 35.719 25.2626 
367 1 30.9418 34.0394 26.2289 
368 1 31.1294 34.9905 27.9782 
369 1 13.1606 25.7424 33.1186 
370 1 11.8437 24.3664 33.7288 
371 1 11.6313 25.339 35.4634 
372 1 12.9482 26.715 34.8532 
373 1 11.6705 26.8198 32.332 
374 1 10.3535 25.4438 32.9422 
375 1 10.1411 26.4164 34.6769 
376 1 11.458 27.7924 34.0667 
377 4 36.7871 10.1239 20.2666 
378 2 5.65057 5.1082 32.8098 
379 2 4.17334 5.83968 35.1082 
380 2 4.35292 7.6191 32.917 
381 2 6.62317 7.13039 34.5317 
382 1 13.3473 5.20675 31.8822 
383 1 15.3025 4.93675 31.559 
384 1 14.9437 4.67239 29.6093 
385 1 12.9885 4.94239 29.9325 
386 1 13.5678 7.17073 31.5753 
387 1 15.5229 6.90073 31.2521 
388 1 15.1641 6.63637 29.3024 
389 1 13.209 6.90637 29.6256 
390 1 15.7767 16.4233 35.7659 
391 1 16.3053 14.4946 35.7912 
392 1 14.6083 14.017 34.8468 
393 1 14.0797 15.9457 34.8214 
394 1 16.6936 16.6514 34.0031 
395 1 17.2222 14.7227 34.0285 
396 1 15.5251 14.2452 33.084 
397 1 14.9965 16.1739 33.0586 
398 1 41.5851 10.7519 35.4663 
399 1 42.732 9.37542 34.5774 
400 1 41.0938 8.43485 33.9204 
401 1 39.947 9.81132 34.8092 
402 1 41.6193 11.8567 33.7995 
403 1 42.7662 10.4803 32.9107 
404 1 41.128 9.53968 32.2536 
405 1 39.9812 10.9162 33.1424 
406 3 29.4392 16.0651 21.7987 
407 3 31.8643 12.9401 22.3931 
408 1 42.6171 38.3386 33.5669 
409 1 44.5031 38.8509 33.9915 
410 1 44.3115 40.4913 32.8635 
411 1 42.4254 39.979 32.4389 
412 1 41.9799 39.3616 35.163 
413 1 43.866 39.8739 35.5875 
414 1 43.6744 41.5143 34.4596 
415 1 41.7883 41.0021 34.035 
416 4 5.23783 43.6708 30.3695 
417 4 25.2536 8.04822 26.8398 
418 4 24.4973 16.5832 32.1487 
419 2 29.6387 17.7548 25.3382 
420 2 31.791 19.4589 26.0188 
421 2 29.1338 20.2369 26.5968 
422 2 30.0361 20.1677 23.917 
423 3 7.87842 17.5429 27.0897 
424 3 5.46949 20.7337 26.9635 
425 4 44.7439 21.0504 33.1762 
426 4 10.386 37.3683 31.2518 
427 4 11.4635 36.9034 25.8817 
428 4 36.9649 39.4213 31.1207 
429 3 39.329 10.9567 28.213 
430 3 42.4086 13.1934 26.9829 
431 4 19.582 14.7928 34.4541 
432 4 23.7897 9.12234 33.7617 
433 2 22.3888 19.9114 32.395 
434 2 23.7838 22.0675 33.5804 
435 2 22.3448 22.4642 31.1779 
436 2 24.7226 20.9325 31.1658 
437 2 24.7687 43.7421 25.9009 
438 2 23.9917 44.4802 28.5184 
439 2 24.6532 46.474 26.6243 
440 2 26.6768 44.8121 27.6936 
441 1 28.8556 9.02373 32.4032 
442 1 27.185 10.0059 31.9087 
443 1 28.2772 11.3833 30.9547 
444 1 29.9478 10.401 31.4492 
445 1 28.7276 7.95685 30.7164 
446 1 27.057 8.93907 30.2219 
447 1 28.1492 10.3164 29.2679 
448 1 29.8198 9.33417 29.7624 
449 1 14.7987 17.1325 27.8021 
450 1 13.5407 15.627 28.1903 
451 1 12.487 16.8197 29.4016 
452 1 13.745 18.3253 29.0134 
453 1 13.6554 17.6899 26.2587 
454 1 12.3974 16.1843 26.6469 
455 1 11.3437 17.377 27.8581 
456 1 12.6017 18.8826 27.4699 
457 4 44.5055 14.4436 29.8854 
458 4 6.19793 21.9652 34.3555 
459 4 5.99156 30.2131 25.2376 
460 4 5.50963 10.3022 33.9292 
461 3 14.5091 20.4041 21.8545 
462 3 15.6798 22.8375 18.9035 
463 4 12.3099 23.0444 29.8871 
464 2 21.909 44.8321 35.1537 
465 2 21.9006 42.5485 33.4849 
466 2 19.8054 44.4399 33.3041 
467 2 20.0153 42.7751 35.5811 
468 1 35.0299 37.5818 33.7937 
469 1 33.1317 38.212 33.794 
470 1 33.5476 39.4638 35.2973 
471 1 35.4458 38.8337 35.2969 
472 1 35.5033 39.0086 32.4745 
473 1 33.6051 39.6388 32.4749 
474 1 34.021 40.8906 33.9782 
475 1 35.9192 40.2605 33.9778 
476 4 19.2284 6.72322 32.2632 
477 4 16.0504 8.36488 33.573 
478 2 42.315 6.21812 26.5823 
479 2 45.0074 5.50957 26.0837 
480 2 44.4039 7.55126 27.9458 
481 2 44.0093 7.99719 25.1807 
482 1 44.7864 18.374 34.3938 
483 1 45.162 16.4452 34.0213 
484 1 43.2003 16.0569 34.0536 
485 1 42.8247 17.9857 34.4261 
486 1 44.683 18.7333 32.4291 
487 1 45.0586 16.8045 32.0566 
488 1 43.0969 16.4162 32.0888 
489 1 42.7213 18.345 32.4613 
490 1 37.2721 36.1737 24.9675 
491 1 37.7226 34.3918 25.7561 
492 1 36.1025 34.499 26.9239 
493 1 35.652 36.2809 26.1354 
494 1 36.1894 35.2719 23.5482 
495 1 36.6399 33.49 24.3368 
496 1 35.0198 33.5971 25.5046 
497 1 34.5693 35.3791 24.7161 
498 4 30.1612 27.6631 32.5776 
499 1 34.37 22.2913 30.0411 
500 1 33.1761 22.8697 31.5378 
501 1 34.7688 23.523 32.5558 
502 1 35.9627 22.9446 31.0592 
503 1 34.1756 24.0909 29.1905 
504 1 32.9816 24.6693 30.6871 
505 1 34.5743 25.3226 31.7052 
506 1 35.7683 24.7442 30.2086 
507 3 38.3582 35.977 29.2154 
508 3 42.2066 36.6187 30.0973 
509 4 20.966 25.358 34.9797 
510 4 23.5249 32.8311 34.1507 
511 4 38.2103 44.0755 32.0297 
512 3 11.9208 35.6008 33.8249 
513 3 15.647 35.3819 32.387 
514 4 6.03211 31.6315 33.6154 
515 4 13.5845 44.0428 31.013 
516 4 22.3547 5.47821 33.4721 
517 4 38.7963 19.8673 34.7889 
518 4 14.478 21.1618 34.1159 
519 4 14.3151 44.5904 34.5804 
520 4 32.9454 43.4741 27.2517 
521 4 31.4124 38.6307 26.1363 
522 4 31.0554 37.4052 34.7423 
523 2 7.44507 33.04 29.2989 
524 2 5.83491 30.7918 29.893 
525 2 6.12092 31.6588 27.2159 
526 2 4.63246 33.2104 29.0536 
527 1 14.5476 11.4568 28.3562 
528 1 15.7184 10.8232 29.8488 
529 1 14.904 9.00148 29.7143 
530 1 13.7332 9.63513 28.2216 
531 1 15.9498 10.9278 27.0318 
532 1 17.1206 10.2942 28.5245 
533 1 16.3062 8.47247 28.3899 
534 1 15.1354 9.10613 26.8973 
535 4 24.3193 24.7294 32.987 
536 4 39.4113 42.7537 34.8452 
537 4 35.6023 18.1894 34.1679 
538 4 34.1689 7.13219 34.8562 
539 2 5.12867 40.1954 29.8705 
540 2 6.40504 41.0678 27.502 
541 2 5.21184 38.5054 27.604 
542 2 7.5752 39.0242 29.0687 
543 4 22.4813 13.4605 31.724 
544 4 19.8911 20.6714 34.7367 
545 4 41.4906 23.0232 26.7321 
546 4 11.9954 15.8665 33.9209 
547 4 40.1445 39.2781 27.2298 
548 4 31.4889 44.5116 34.358 
549 4 8.73784 23.4714 32.6151 
550 4 33.9788 20.6109 25.5972 
551 4 16.9155 28.4805 33.551 
552 4 31.9136 21.4641 29.6804 
553 4 38.0963 15.1265 28.8163 
554 4 5.43153 18.0915 34.1806 
ITEM: TIMESTEP
2000
ITEM: NUMBER OF ENTRIES
693
ITEM: BOX BOUNDS pp pp fm
0 50
0 50
0 50
ITEM: ENTRIES index c_1[1] c_1[2] c_1[3] c_1[4] 
1 1 12.2768 13.9335 15.8488 
2 1 11.1707 12.7512 14.6746 
3 1 10.3648 14.3643 13.8096 
4 1 11.4708 15.5466 14.9838 
5 1 13.7352 13.9283 14.4802 
6 1 12.6291 12.7459 13.306 
7 1 11.8232 14.3591 12.441 
8 1 12.9293 15.5414 13.6152 
9 4 17.9739 17.6706 14.1798 
10 4 44.2599 5.99441 16.0994 
11 2 19.4954 11.1884 16.5905 
12 2 19.506 10.9412 13.7729 
13 2 17.625 9.49492 15.3124 
14 2 20.3606 8.78029 15.3854 
15 4 36.7871 10.1239 14.3379 
16 3 45.0161 11.5284 16.337 
17 3 44.98 12.2874 12.4098 
18 3 29.4392 16.0651 16.2181 
19 3 31.8643 12.9401 16.8126 
20 3 14.5091 20.4041 15.9465 
21 3 15.6798 22.8375 12.9955 
22 3 8.98289 21.084 17.3408 
23 3 7.20236 24.3706 15.9169 
24 1 24.5055 30.4474 16.3201 
25 1 24.553 28.5481 15.6954 
26 1 25.3353 29.1409 13.9528 
27 1 25.2878 31.0402 14.5776 
28 1 26.3455 30.2444 17.0772 
29 1 26.393 28.3451 16.4524 
30 1 27.1753 28.9379 14.7098 
31 1 27.1278 30.8372 15.3346 
32 4 34.9225 32.2551 16.5648 
33 3 16.063 35.0456 15.4622 
34 3 20.063 35.0277 15.4786 
35 4 25.334 38.7834 17.0244 
36 3 3.25991 14.9307 17.9307 
37 3 7.00775 13.6982 18.59 
38 4 38.0605 13.4531 19.1656 
39 1 21.9856 14.8299 19.0159 
40 1 22.5971 16.7322 19.1017 
41 1 22.5825 16.827 17.104 
42 1 21.971 14.9247 17.0182 
43 1 20.0815 15.44 19.0588 
44 1 20.6929 17.3423 19.1446 
45 1 20.6783 17.4371 17.1469 
46 1 20.0668 15.5348 17.0611 
47 1 17.9984 28.7888 17.9179 
48 1 19.749 28.096 18.5928 
49 1 18.8409 26.4382 19.2464 
50 1 17.0903 27.131 18.5716 
51 1 18.3313 27.9103 16.1524 
52 1 20.0819 27.2175 16.8272 
53 1 19.1739 25.5597 17.4809 
54 1 17.4233 26.2525 16.806 
55 3 28.8882 26.1322 18.2274 
56 3 32.4595 24.9398 16.8766 
57 4 5.48533 41.9914 17.7437 
58 3 10.3359 4.32332 23.9821 
59 3 9.32682 7.73562 22.1551 
60 3 21.6472 6.09242 21.9049 
61 3 18.5785 6.59515 24.4209 
62 2 42.315 6.21812 21.9461 
63 2 45.0074 5.50957 21.4476 
64 2 44.4039 7.55126 23.3096 
65 2 44.0093 7.99719 20.5446 
66 4 25.2536 8.04822 22.2996 
67 4 37.5223 7.61782 22.3673 
68 1 31.7572 9.34628 20.8976 
69 1 30.3371 9.9111 19.6075 
70 1 29.3722 10.8553 21.0831 
71 1 30.7923 10.2905 22.3732 
72 1 32.783 11.0165 20.4997 
73 1 31.3629 11.5813 19.2096 
74 1 30.3979 12.5255 20.6852 
75 1 31.818 11.9606 21.9753 
76 3 39.329 10.9567 23.865 
77 3 42.4086 13.1934 22.6349 
78 1 18.6383 13.3526 23.3536 
79 1 18.4519 13.4154 21.3633 
80 1 16.5079 12.9764 21.5316 
81 1 16.6943 12.9136 23.5219 
82 1 18.2067 15.3028 23.4556 
83 1 18.0203 15.3656 21.4653 
84 1 16.0763 14.9266 21.6335 
85 1 16.2627 14.8638 23.6238 
86 3 7.87842 17.5429 22.596 
87 3 5.46949 20.7337 22.4698 
88 2 29.6387 17.7548 20.4715 
89 2 31.791 19.4589 21.1522 
90 2 29.1338 20.2369 21.7301 
91 2 30.0361 20.1677 19.0503 
92 3 37.6654 16.8319 19.6488 
93 3 40.3268 19.3981 21.1757 
94 4 33.9405 20.3475 21.0708 
95 4 10.7392 23.9158 20.4854 
96 4 16.018 23.7657 21.3049 
97 4 41.4906 23.0232 22.1652 
98 1 20.1167 27.8501 22.6939 
99 1 21.6072 27.4892 23.9777 
100 1 21.4354 25.5279 23.6257 
101 1 19.9449 25.8888 22.3419 
102 1 21.4392 28.0021 21.2012 
103 1 22.9297 27.6412 22.485 
104 1 22.7579 25.68 22.1331 
105 1 21.2674 26.0409 20.8493 
106 4 5.99156 30.2131 20.3185 
107 2 43.4982 32.2258 19.119 
108 2 43.5428 32.9967 21.84 
109 2 45.9585 32.376 20.5062 
110 2 44.1129 30.3219 21.1184 
111 1 13.5256 33.0672 21.445 
112 1 13.2353 31.3333 20.4913 
113 1 11.2637 31.5048 20.7797 
114 1 11.5539 33.2386 21.7334 
115 1 13.3574 34.0492 19.7109 
116 1 13.0671 32.3153 18.7572 
117 1 11.0954 32.4868 19.0455 
118 1 11.3857 34.2206 19.9992 
119 1 37.2721 36.1737 20.048 
120 1 37.7226 34.3918 20.8366 
121 1 36.1025 34.499 22.0044 
122 1 35.652 36.2809 21.2158 
123 1 36.1894 35.2719 18.6287 
124 1 36.6399 33.49 19.4173 
125 1 35.0198 33.5971 20.5851 
126 1 34.5693 35.3791 19.7965 
127 4 11.4635 36.9034 21.1108 
128 2 18.8186 36.4945 23.6845 
129 2 19.1567 34.3068 21.9239 
130 2 17.0837 36.1775 21.4733 
131 2 16.9266 34.3922 23.6614 
132 1 33.5534 36.1462 22.5053 
133 1 33.3657 35.1951 20.756 
134 1 32.8704 33.5155 21.7222 
135 1 33.058 34.4666 23.4716 
136 1 31.6248 36.6701 22.4274 
137 1 31.4372 35.719 20.678 
138 1 30.9418 34.0394 21.6443 
139 1 31.1294 34.9905 23.3936 
140 4 43.5596 36.7767 23.0532 
141 2 20.9269 40.6636 23.7097 
142 2 22.2546 38.332 22.8148 
143 2 20.5308 39.7368 21.0669 
144 2 19.46 38.2897 23.2486 
145 4 31.4124 38.6307 21.4254 
146 4 40.1445 39.2781 22.7872 
147 2 14.9857 42.3551 20.7498 
148 2 15.6808 39.6439 20.3422 
149 2 12.9613 40.4213 20.3467 
150 2 14.441 40.4383 22.7571 
151 2 13.63 45.5376 22.1703 
152 2 11.0612 44.4282 21.7571 
153 2 12.2289 44.3707 24.3326 
154 2 13.2671 42.7344 22.2723 
155 2 20.8336 44.1509 22.8686 
156 2 20.1573 42.6232 20.5863 
157 2 18.6622 44.9351 21.2346 
158 2 18.4557 42.6195 22.8457 
159 2 24.7687 43.7421 21.4468 
160 2 23.9917 44.4802 24.0644 
161 2 24.6532 46.474 22.1703 
162 2 26.6768 44.8121 23.2396 
163 4 29.4755 44.519 20.5481 
164 4 32.9454 43.4741 22.8147 
165 1 39.6173 45.4106 21.9322 
166 1 41.2222 44.912 23.0163 
167 1 40.0713 43.7849 24.2017 
168 1 38.4664 44.2835 23.1175 
169 1 39.9327 43.8355 20.7408 
170 1 41.5377 43.3368 21.8249 
171 1 40.3868 42.2098 23.0103 
172 1 38.7818 42.7084 21.9261 
173 4 44.1903 44.2631 21.1464 
174 1 14.5476 11.4568 24.2152 
175 1 15.7184 10.8232 25.7078 
176 1 14.904 9.00148 25.5732 
177 1 13.7332 9.63513 24.0806 
178 1 15.9498 10.9278 22.8908 
179 1 17.1206 10.2942 24.3834 
180 1 16.3062 8.47247 24.2488 
181 1 15.1354 9.10613 22.7562 
182 4 34.3499 9.59036 23.3206 
183 2 10.3156 12.0998 24.3095 
184 2 8.43714 12.174 22.1962 
185 2 7.98978 13.6927 24.5401 
186 2 7.78644 10.8727 24.6218 
187 1 23.93 10.3037 24.692 
188 1 25.459 10.9712 25.795 
189 1 26.0705 12.102 24.2629 
190 1 24.5415 11.4345 23.1599 
191 1 22.795 11.8122 25.3524 
192 1 24.324 12.4797 26.4554 
193 1 24.9356 13.6105 24.9233 
194 1 23.4066 12.943 23.8203 
195 4 44.5055 14.4436 26.1867 
196 1 14.7987 17.1325 23.515 
197 1 13.5407 15.627 23.9032 
198 1 12.487 16.8197 25.1144 
199 1 13.745 18.3253 24.7262 
200 1 13.6554 17.6899 21.9715 
201 1 12.3974 16.1843 22.3597 
202 1 11.3437 17.377 23.571 
203 1 12.6017 18.8826 23.1828 
204 4 38.0963 15.1265 24.799 
205 4 33.6777 18.5396 23.4096 
206 4 31.9136 21.4641 25.9182 
207 3 6.77506 25.3441 23.4231 
208 3 9.41043 24.1858 26.2004 
209 4 12.3099 23.0444 26.189 
210 2 16.7327 27.6423 26.549 
211 2 16.9501 25.7337 24.4729 
212 2 14.84 27.617 24.4474 
213 2 14.8547 25.5356 26.3624 
214 4 30.7443 26.0955 26.835 
215 4 12.2722 28.7372 24.1428 
216 4 34.808 27.5045 24.5474 
217 4 40.9388 28.2994 25.0839 
218 2 7.44507 33.04 25.2957 
219 2 5.83491 30.7918 25.8897 
220 2 6.12092 31.6588 23.2127 
221 2 4.63246 33.2104 25.0504 
222 4 21.4828 32.2024 25.6025 
223 2 30.9575 33.2727 24.2861 
224 2 31.4308 30.6828 23.2524 
225 2 28.7863 31.6674 23.4444 
226 2 30.218 30.9934 25.7887 
227 3 38.3582 35.977 25.4458 
228 3 42.2066 36.6187 26.3277 
229 2 5.12867 40.1954 25.7676 
230 2 6.40504 41.0678 23.3991 
231 2 5.21184 38.5054 23.5011 
232 2 7.5752 39.0242 24.9658 
233 4 26.3742 40.392 23.5186 
234 1 13.3473 5.20675 28.4128 
235 1 15.3025 4.93675 28.0896 
236 1 14.9437 4.67239 26.1399 
237 1 12.9885 4.94239 26.4631 
238 1 13.5678 7.17073 28.1059 
239 1 15.5229 6.90073 27.7827 
240 1 15.1641 6.63637 25.833 
241 1 13.209 6.90637 26.1562 
242 4 19.4229 7.02959 29.7319 
243 1 34.4498 6.35521 28.3506 
244 1 34.3133 4.36253 28.2477 
245 1 32.3181 4.4976 28.2796 
246 1 32.4546 6.49028 28.3825 
247 1 34.425 6.46001 26.3535 
248 1 34.2885 4.46733 26.2506 
249 1 32.2933 4.6024 26.2825 
250 1 32.4298 6.59508 26.3854 
251 2 43.7691 4.47355 29.3716 
252 2 45.9366 4.81127 27.5861 
253 2 45.0751 6.97586 29.1899 
254 2 43.4581 6.06621 27.055 
255 1 28.8556 9.02373 29.0169 
256 1 27.185 10.0059 28.5224 
257 1 28.2772 11.3833 27.5684 
258 1 29.9478 10.401 28.0629 
259 1 28.7276 7.95685 27.3301 
260 1 27.057 8.93907 26.8356 
261 1 28.1492 10.3164 25.8816 
262 1 29.8198 9.33417 26.3761 
263 4 22.4813 13.4605 28.6639 
264 1 29.5937 14.3295 31.187 
265 1 29.8594 12.4322 30.6129 
266 1 27.9686 12.3634 29.9649 
267 1 27.7028 14.2607 30.5391 
268 1 30.1886 14.9584 29.3841 
269 1 30.4544 13.0611 28.81 
270 1 28.5635 12.9923 28.162 
271 1 28.2977 14.8896 28.7362 
272 4 5.31753 16.7626 27.4811 
273 4 24.4973 16.5832 29.2604 
274 3 9.92885 18.9456 30.6103 
275 3 11.6395 20.5779 27.3839 
276 4 17.9572 17.9642 30.2829 
277 1 29.9263 19.0952 30.5607 
278 1 29.5549 17.1444 30.7982 
279 1 27.7117 17.4064 30.0676 
280 1 28.0831 19.3572 29.8302 
281 1 30.6078 18.7407 28.7142 
282 1 30.2365 16.7899 28.9516 
283 1 28.3932 17.0519 28.221 
284 1 28.7646 19.0027 27.9836 
285 1 17.8751 22.3005 28.4445 
286 1 17.7512 20.6014 27.3967 
287 1 17.086 21.6263 25.8133 
288 1 17.2099 23.3254 26.8611 
289 1 19.7572 22.5508 27.8159 
290 1 19.6333 20.8518 26.7681 
291 1 18.9681 21.8766 25.1848 
292 1 19.092 23.5757 26.2325 
293 2 22.3888 19.9114 29.478 
294 2 23.7838 22.0675 30.6635 
295 2 22.3448 22.4642 28.261 
296 2 24.7226 20.9325 28.2489 
297 3 37.9059 22.0235 27.1909 
298 3 41.7956 21.2324 27.6849 
299 1 34.37 22.2913 26.6677 
300 1 33.1761 22.8697 28.1644 
301 1 34.7688 23.523 29.1824 
302 1 35.9627 22.9446 27.6858 
303 1 34.1756 24.0909 25.8171 
304 1 32.9816 24.6693 27.3137 
305 1 34.5743 25.3226 28.3318 
306 1 35.7683 24.7442 26.8352 
307 1 38.8463 26.63 30.7005 
308 1 39.4157 24.9298 29.8144 
309 1 37.6147 24.1386 30.1754 
310 1 37.0453 25.8388 31.0614 
311 1 38.1889 27.3251 28.9441 
312 1 38.7584 25.6249 28.0581 
313 1 36.9573 24.8337 28.419 
314 1 36.3879 26.5339 29.305 
315 3 24.7185 29.9061 27.6355 
316 3 27.4191 27.0774 26.7958 
317 4 30.2321 27.4728 29.4202 
318 2 17.3256 30.947 30.6232 
319 2 16.0613 30.9148 28.0933 
320 2 17.6799 33.1117 28.8375 
321 2 15.1776 32.7092 30.0931 
322 3 31.9124 30.8031 28.4494 
323 3 35.5905 30.6066 30.0093 
324 2 5.10989 37.0007 29.2802 
325 2 5.34303 35.7583 26.75 
326 2 5.5553 34.2128 29.1093 
327 2 7.61664 36.0197 28.412 
328 4 10.4708 37.4449 28.6073 
329 3 23.429 35.2897 26.7567 
330 3 27.4004 34.9268 27.0663 
331 1 36.795 35.8842 29.5896 
332 1 36.0571 34.0466 29.3091 
333 1 34.2029 34.7957 29.2793 
334 1 34.9409 36.6333 29.5598 
335 1 36.9274 36.1332 27.6096 
336 1 36.1895 34.2956 27.3291 
337 1 34.3353 35.0448 27.2993 
338 1 35.0733 36.8823 27.5798 
339 4 36.9649 39.4213 27.835 
340 2 16.9183 41.7152 29.4725 
341 2 16.779 39.8065 27.3899 
342 2 14.8307 41.8491 27.5688 
343 2 14.8719 39.7627 29.4781 
344 1 32.4051 41.191 28.1407 
345 1 32.9609 39.3285 27.6692 
346 1 31.4055 39.1805 26.4206 
347 1 30.8498 41.0429 26.8921 
348 1 33.533 41.9046 26.6512 
349 1 34.0887 40.0421 26.1797 
350 1 32.5334 39.8941 24.9311 
351 1 31.9776 41.7566 25.4026 
352 4 5.24752 43.66 26.8338 
353 1 11.6048 44.7649 29.8312 
354 1 10.9899 42.9548 29.2435 
355 1 9.21454 43.2779 30.1058 
356 1 9.82942 45.088 30.6936 
357 1 10.9193 45.5518 28.1251 
358 1 10.3044 43.7417 27.5373 
359 1 8.52901 44.0647 28.3997 
360 1 9.14388 45.8748 28.9875 
361 4 13.5845 44.0428 27.6889 
362 4 38.2662 43.98 29.2528 
363 3 40.3154 43.6504 30.2838 
364 3 43.9488 44.9386 29.2165 
365 2 5.65057 5.1082 30.7876 
366 2 4.17334 5.83968 33.086 
367 2 4.35292 7.6191 30.8948 
368 2 6.62317 7.13039 32.5094 
369 4 22.3547 5.47821 31.2235 
370 1 29.0081 6.63165 32.4632 
371 1 29.5032 4.78357 31.8806 
372 1 27.5746 4.37204 31.547 
373 1 27.0795 6.22011 32.1297 
374 1 29.1964 7.27605 30.5792 
375 1 29.6915 5.42797 29.9966 
376 1 27.7629 5.01644 29.6631 
377 1 27.2678 6.86451 30.2457 
378 4 34.1846 7.12486 33.8233 
379 4 40.421 5.73056 32.9572 
380 3 10.3396 9.86425 33.5201 
381 3 9.68989 6.17925 32.1064 
382 4 16.0106 8.37906 31.4113 
383 4 20.725 9.00528 31.528 
384 4 23.6967 8.97223 31.5579 
385 4 5.50963 10.3022 31.9656 
386 2 12.1239 12.3629 28.4034 
387 2 14.2435 12.3512 30.2761 
388 2 12.4115 10.1976 30.2002 
389 2 11.5816 12.7272 31.1553 
390 1 16.6044 12.7227 29.5338 
391 1 17.3902 12.9748 31.3556 
392 1 16.6172 11.2225 31.9315 
393 1 15.8314 10.9704 30.1098 
394 1 18.2732 11.7922 28.9427 
395 1 19.059 12.0444 30.7645 
396 1 18.286 10.292 31.3405 
397 1 17.5002 10.0399 29.5187 
398 1 33.4719 11.3927 33.3112 
399 1 32.8601 9.56049 32.7928 
400 1 31.0702 9.92813 33.6059 
401 1 31.682 11.7603 34.1243 
402 1 32.8224 12.1054 31.5591 
403 1 32.2105 10.2732 31.0406 
404 1 30.4206 10.6409 31.8537 
405 1 31.0325 12.473 32.3722 
406 3 35.4722 11.3328 33.2261 
407 3 38.34 10.3847 30.6038 
408 1 41.5851 10.7519 33.4561 
409 1 42.732 9.37542 32.5673 
410 1 41.0938 8.43485 31.9102 
411 1 39.947 9.81132 32.799 
412 1 41.6193 11.8567 31.7893 
413 1 42.7662 10.4803 30.9005 
414 1 41.128 9.53968 30.2434 
415 1 39.9812 10.9162 31.1322 
416 4 8.08498 14.2599 32.4379 
417 4 19.5846 14.7994 32.9089 
418 2 34.3821 14.2309 31.6968 