ITEM: TIMESTEP
0
ITEM: NUMBER OF ATOMS
0
ITEM: BOX BOUNDS pp pp fm
0.0000000000000000e+00 5.0000000000000000e+01
0.0000000000000000e+00 5.0000000000000000e+01
0.0000000000000000e+00 5.0000000000000000e+01
ITEM: ATOMS id type x y z radius 
ITEM: TIMESTEP
1000
ITEM: NUMBER OF ATOMS
175
ITEM: BOX BOUNDS pp pp fm
0.0000000000000000e+00 5.0000000000000000e+01
0.0000000000000000e+00 5.0000000000000000e+01
0.0000000000000000e+00 5.0000000000000000e+01
ITEM: ATOMS id type x y z radius 
1 3 33.7515 30.7048 32.1268 2.25 
2 1 24.4328 11.9571 28.8229 1.98205 
3 3 39.8508 21.628 30.8271 2.25 
4 2 34.5883 14.8015 32.7133 1.98205 
5 1 31.0776 10.9359 25.6225 1.98205 
6 3 9.83138 6.02947 27.4538 2.25 
7 4 9.71165 33.7472 34.3002 1.5 
8 3 36.9061 10.8588 33.899 2.25 
9 4 21.4828 32.2024 29.4381 1.5 
10 2 5.90621 35.7479 31.5246 1.98205 
11 2 15.85 40.7834 31.5894 1.98205 
12 4 8.08498 14.2599 34.2016 1.5 
13 3 42.1321 44.2945 32.4907 2.25 
14 1 21.4373 26.765 26.9311 1.98205 
15 4 34.808 27.5045 28.6199 1.5 
16 1 32.4692 40.5425 30.1505 1.98205 
17 2 19.2467 10.1012 21.0481 1.98205 
18 3 5.13383 14.3145 23.5468 2.25 
19 1 10.0669 44.4148 32.0463 1.98205 
20 4 40.421 5.73056 34.4785 1.5 
21 4 12.2722 28.7372 28.3029 1.5 
22 1 29.2297 34.1762 33.5452 1.98205 
23 4 5.48533 41.9914 23.1188 1.5 
24 1 25.8404 29.6927 21.2579 1.98205 
25 1 40.002 43.8102 26.9773 1.98205 
26 4 6.02472 27.3973 32.9329 1.5 
27 4 25.8056 44.0217 32.9821 1.5 
28 4 17.9983 17.8533 32.5511 1.5 
29 2 15.8444 26.6322 29.3267 1.98205 
30 2 12.5468 44.2677 27.1067 1.98205 
31 3 10.0148 8.02175 34.4045 2.25 
32 1 18.5861 27.1742 23.082 1.98205 
33 4 10.5991 29.7107 34.0691 1.5 
34 3 18.063 35.0367 21.2205 2.25 
35 2 44.2781 31.9801 25.5042 1.98205 
36 2 16.5611 31.9207 32.2551 1.98205 
37 1 29.1598 18.0735 32.2404 1.98205 
38 2 19.9338 37.4351 34.2485 1.98205 
39 3 8.09274 24.765 28.8261 2.25 
40 4 43.5596 36.7767 27.4416 1.5 
41 1 18.4216 22.0886 30.3609 1.98205 
42 4 16.018 23.7657 26.0388 1.5 
43 1 44.2209 30.5134 33.4196 1.98205 
44 3 10.7842 19.7618 31.9623 2.25 
45 3 26.0688 28.4917 30.6616 2.25 
46 1 12.3105 32.777 25.1779 1.98205 
47 1 17.3573 14.1396 26.9952 1.98205 
48 3 25.4147 35.1083 30.4338 2.25 
49 4 7.02048 41.6781 34.2828 1.5 
50 3 20.1128 6.34379 27.5288 2.25 
51 2 8.63225 12.2098 28.1253 1.98205 
52 1 28.3855 5.82395 33.3693 1.98205 
53 2 35.0493 44.1965 33.8891 1.98205 
54 4 38.0605 13.4531 24.2934 1.5 
55 1 37.9018 25.7318 32.3585 1.98205 
56 4 26.3742 40.392 27.8109 1.5 
57 4 30.829 25.8679 30.0128 1.5 
58 1 40.5691 15.5387 34.383 1.98205 
59 1 29.0786 13.6609 32.4383 1.98205 
60 2 43.6357 35.3381 33.6534 1.98205 
61 2 28.509 41.1194 33.5572 1.98205 
62 3 28.0605 22.2562 33.0372 2.25 
63 4 5.31726 16.7594 30.8538 1.5 
64 4 44.1908 44.2619 25.8989 1.5 
65 4 16.5464 24.6393 34.4371 1.5 
66 1 33.3715 5.4788 30.7369 1.98205 
67 4 34.9225 32.2551 22.1372 1.5 
68 2 14.5172 40.7147 25.8315 1.98205 
69 4 40.9388 28.2994 29.0375 1.5 
70 4 39.1353 36.8486 34.1254 1.5 
71 1 35.5724 35.4635 31.557 1.98205 
72 4 29.1446 30.4107 34.4127 1.5 
73 2 20.7931 39.2555 27.1681 1.98205 
74 4 20.8264 9.16154 33.773 1.5 
75 2 33.063 20.4779 32.9972 1.98205 
76 2 12.5901 11.9097 32.6684 1.98205 
77 4 37.5223 7.61782 26.894 1.5 
78 1 17.4452 11.5074 32.9582 1.98205 
79 2 44.5597 5.58172 31.4613 1.98205 
80 2 44.8727 26.3015 32.881 1.98205 
81 3 44.998 11.9079 20.2966 2.25 
82 4 33.6394 18.2762 27.9701 1.5 
83 4 20.8407 18.0168 33.4125 1.5 
84 4 29.4755 44.519 25.4246 1.5 
85 3 30.6739 25.536 22.9596 2.25 
86 2 20.5664 28.9673 32.9553 1.98205 
87 2 30.3482 31.6541 28.3423 1.98205 
88 3 38.9961 18.115 25.314 2.25 
89 4 25.334 38.7834 22.5206 1.5 
90 4 10.7392 23.9158 25.3736 1.5 
91 4 44.2599 5.99441 21.748 1.5 
92 4 11.7629 38.6133 33.6996 1.5 
93 3 8.09262 22.7273 22.1907 2.25 
94 2 38.7542 31.0878 33.9167 1.98205 
95 4 24.3917 40.5919 32.626 1.5 
96 4 34.3499 9.59036 27.654 1.5 
97 2 17.9964 35.3427 27.1488 1.98205 
98 4 17.9739 17.6706 20.1331 1.5 
99 2 19.5272 43.5822 26.5059 1.98205 
100 1 31.9463 11.0168 34.2814 1.98205 
101 1 12.05 14.1463 20.1036 1.98205 
102 1 21.332 16.1335 23.3987 1.98205 
103 1 32.2476 35.0928 26.6594 1.98205 
104 1 11.6509 26.0794 33.8977 1.98205 
105 4 36.7871 10.1239 20.2666 1.5 
106 2 5.2 6.42434 33.8417 1.98205 
107 1 14.2557 5.92156 30.5923 1.98205 
108 1 15.6509 15.3342 34.4249 1.98205 
109 1 41.3566 10.1458 33.8599 1.98205 
110 3 30.6518 14.5026 22.0959 2.25 
111 1 43.1457 39.9265 34.0132 1.98205 
112 4 5.23783 43.6708 30.3695 1.5 
113 4 25.2536 8.04822 26.8398 1.5 
114 4 24.4973 16.5832 32.1487 1.5 
115 2 30.1499 19.4046 25.4677 1.98205 
116 3 6.67395 19.1383 27.0266 2.25 
117 4 44.7439 21.0504 33.1762 1.5 
118 4 10.386 37.3683 31.2518 1.5 
119 4 11.4635 36.9034 25.8817 1.5 
120 4 36.9649 39.4213 31.1207 1.5 
121 3 40.8688 12.075 27.598 2.25 
122 4 19.582 14.7928 34.4541 1.5 
123 4 23.7897 9.12234 33.7617 1.5 
124 2 23.31 21.3439 32.0798 1.98205 
125 2 25.0226 44.8771 27.1843 1.98205 
126 1 28.5024 9.67006 30.8356 1.98205 
127 1 13.0712 17.2548 27.8301 1.98205 
128 4 44.5055 14.4436 29.8854 1.5 
129 4 6.19793 21.9652 34.3555 1.5 
130 4 5.99156 30.2131 25.2376 1.5 
131 4 5.50963 10.3022 33.9292 1.5 
132 3 15.0944 21.6208 20.379 2.25 
133 4 12.3099 23.0444 29.8871 1.5 
134 2 20.9076 43.6489 34.3809 1.98205 
135 1 34.5254 39.2362 33.8859 1.98205 
136 4 19.2284 6.72322 32.2632 1.5 
137 4 16.0504 8.36488 33.573 1.5 
138 2 43.9339 6.81903 26.4481 1.98205 
139 1 43.9417 17.3951 33.2413 1.98205 
140 1 36.1459 34.8854 25.2361 1.98205 
141 4 30.1612 27.6631 32.5776 1.5 
142 1 34.4722 23.8069 30.8732 1.98205 
143 3 40.2824 36.2978 29.6563 2.25 
144 4 20.966 25.358 34.9797 1.5 
145 4 23.5249 32.8311 34.1507 1.5 
146 4 38.2103 44.0755 32.0297 1.5 
147 3 13.7839 35.4913 33.106 2.25 
148 4 6.03211 31.6315 33.6154 1.5 
149 4 13.5845 44.0428 31.013 1.5 
150 4 22.3547 5.47821 33.4721 1.5 
151 4 38.7963 19.8673 34.7889 1.5 
152 4 14.478 21.1618 34.1159 1.5 
153 4 14.3151 44.5904 34.5804 1.5 
154 4 32.9454 43.4741 27.2517 1.5 
155 4 31.4124 38.6307 26.1363 1.5 
156 4 31.0554 37.4052 34.7423 1.5 
157 2 6.00834 32.1752 28.8654 1.98205 
158 1 15.4269 9.96466 28.373 1.98205 
159 4 24.3193 24.7294 32.987 1.5 
160 4 39.4113 42.7537 34.8452 1.5 
161 4 35.6023 18.1894 34.1679 1.5 
162 4 34.1689 7.13219 34.8562 1.5 
163 2 6.08019 39.6982 28.5113 1.98205 
164 4 22.4813 13.4605 31.724 1.5 
165 4 19.8911 20.6714 34.7367 1.5 
166 4 41.4906 23.0232 26.7321 1.5 
167 4 11.9954 15.8665 33.9209 1.5 
168 4 40.1445 39.2781 27.2298 1.5 
169 4 31.4889 44.5116 34.358 1.5 
170 4 8.73784 23.4714 32.6151 1.5 
171 4 33.9788 20.6109 25.5972 1.5 
172 4 16.9155 28.4805 33.551 1.5 
173 4 31.9136 21.4641 29.6804 1.5 
174 4 38.0963 15.1265 28.8163 1.5 
175 4 5.43153 18.0915 34.1806 1.5 
ITEM: TIMESTEP
2000
ITEM: NUMBER OF ATOMS
225
ITEM: BOX BOUNDS pp pp fm
0.0000000000000000e+00 5.0000000000000000e+01
0.0000000000000000e+00 5.0000000000000000e+01
0.0000000000000000e+00 5.0000000000000000e+01
ITEM: ATOMS id type x y z radius 
101 1 12.05 14.1463 14.1449 1.98205 
98 4 17.9739 17.6706 14.1798 1.5 
91 4 44.2599 5.99441 16.0994 1.5 
17 2 19.2467 10.1012 15.2653 1.98205 
105 4 36.7871 10.1239 14.3379 1.5 
81 3 44.998 11.9079 14.3734 2.25 
110 3 30.6518 14.5026 16.5153 2.25 
132 3 15.0944 21.6208 14.471 2.25 
93 3 8.09262 22.7273 16.6288 2.25 
24 1 25.8404 29.6927 15.515 1.98205 
67 4 34.9225 32.2551 16.5648 1.5 
34 3 18.063 35.0367 15.4704 2.25 
89 4 25.334 38.7834 17.0244 1.5 
18 3 5.13383 14.3145 18.2603 2.25 
54 4 38.0605 13.4531 19.1656 1.5 
102 1 21.332 16.1335 18.0814 1.98205 
32 1 18.5861 27.1742 17.6994 1.98205 
85 3 30.6739 25.536 17.552 2.25 
23 4 5.48533 41.9914 17.7437 1.5 
6 3 9.83138 6.02947 23.0686 2.25 
50 3 20.1128 6.34379 23.1629 2.25 
138 2 43.9339 6.81903 21.812 1.98205 
113 4 25.2536 8.04822 22.2996 1.5 
77 4 37.5223 7.61782 22.3673 1.5 
5 1 31.0776 10.9359 20.7914 1.98205 
121 3 40.8688 12.075 23.25 2.25 
47 1 17.3573 14.1396 22.4936 1.98205 
116 3 6.67395 19.1383 22.5329 2.25 
115 2 30.1499 19.4046 20.601 1.98205 
88 3 38.9961 18.115 20.4122 2.25 
171 4 33.9405 20.3475 21.0708 1.5 
90 4 10.7392 23.9158 20.4854 1.5 
42 4 16.018 23.7657 21.3049 1.5 
166 4 41.4906 23.0232 22.1652 1.5 
14 1 21.4373 26.765 22.4135 1.98205 
130 4 5.99156 30.2131 20.3185 1.5 
35 2 44.2781 31.9801 20.6459 1.98205 
46 1 12.3105 32.777 20.2453 1.98205 
140 1 36.1459 34.8854 20.3166 1.98205 
119 4 11.4635 36.9034 21.1108 1.5 
97 2 17.9964 35.3427 22.6858 1.98205 
103 1 32.2476 35.0928 22.0748 1.98205 
40 4 43.5596 36.7767 23.0532 1.5 
73 2 20.7931 39.2555 22.71 1.98205 
155 4 31.4124 38.6307 21.4254 1.5 
168 4 40.1445 39.2781 22.7872 1.5 
68 2 14.5172 40.7147 21.049 1.98205 
30 2 12.5468 44.2677 22.6331 1.98205 
99 2 19.5272 43.5822 21.8838 1.98205 
125 2 25.0226 44.8771 22.7303 1.98205 
84 4 29.4755 44.519 20.5481 1.5 
154 4 32.9454 43.4741 22.8147 1.5 
25 1 40.002 43.8102 22.4712 1.98205 
64 4 44.1903 44.2631 21.1464 1.5 
158 1 15.4269 9.96466 24.232 1.98205 
96 4 34.3499 9.59036 23.3206 1.5 
51 2 8.63225 12.2098 23.9169 1.98205 
2 1 24.4328 11.9571 24.8076 1.98205 
128 4 44.5055 14.4436 26.1867 1.5 
127 1 13.0712 17.2548 23.543 1.98205 
174 4 38.0963 15.1265 24.799 1.5 
82 4 33.6777 18.5396 23.4096 1.5 
173 4 31.9136 21.4641 25.9182 1.5 
39 3 8.09274 24.765 24.8117 2.25 
133 4 12.3099 23.0444 26.189 1.5 
29 2 15.8444 26.6322 25.4579 1.98205 
57 4 30.7443 26.0955 26.835 1.5 
21 4 12.2722 28.7372 24.1428 1.5 
15 4 34.808 27.5045 24.5474 1.5 
69 4 40.9388 28.2994 25.0839 1.5 
157 2 6.00834 32.1752 24.8621 1.98205 
9 4 21.4828 32.2024 25.6025 1.5 
87 2 30.3482 31.6541 24.1929 1.98205 
143 3 40.2824 36.2978 25.8867 2.25 
163 2 6.08019 39.6982 24.4084 1.98205 
56 4 26.3742 40.392 23.5186 1.5 
107 1 14.2557 5.92156 27.1229 1.98205 
136 4 19.4229 7.02959 29.7319 1.5 
66 1 33.3715 5.4788 27.3165 1.98205 
79 2 44.5597 5.58172 28.3007 1.98205 
126 1 28.5024 9.67006 27.4492 1.98205 
164 4 22.4813 13.4605 28.6639 1.5 
59 1 29.0786 13.6609 29.6745 1.98205 
63 4 5.31753 16.7626 27.4811 1.5 
114 4 24.4973 16.5832 29.2604 1.5 
44 3 10.7842 19.7618 28.9971 2.25 
28 4 17.9572 17.9642 30.2829 1.5 
37 1 29.1598 18.0735 29.3909 1.98205 
41 1 18.4216 22.0886 26.8146 1.98205 
124 2 23.31 21.3439 29.1628 1.98205 
3 3 39.8508 21.628 27.4379 2.25 
142 1 34.4722 23.8069 27.4998 1.98205 
55 1 37.9018 25.7318 29.5597 1.98205 
45 3 26.0688 28.4917 27.2156 2.25 
141 4 30.2321 27.4728 29.4202 1.5 
36 2 16.5611 31.9207 29.4118 1.98205 
1 3 33.7515 30.7048 29.2294 2.25 
10 2 5.90621 35.7479 28.3879 1.98205 
118 4 10.4708 37.4449 28.6073 1.5 
48 3 25.4147 35.1083 26.9115 2.25 
71 1 35.5652 35.4645 28.4444 1.98205 
120 4 36.9649 39.4213 27.835 1.5 
11 2 15.85 40.7834 28.4773 1.98205 
16 1 32.4692 40.5425 26.5359 1.98205 
112 4 5.24752 43.66 26.8338 1.5 
19 1 10.0669 44.4148 29.1155 1.98205 
149 4 13.5845 44.0428 27.6889 1.5 
146 4 38.2662 43.98 29.2528 1.5 
13 3 42.1321 44.2945 29.7502 2.25 
106 2 5.2 6.42434 31.8194 1.98205 
150 4 22.3547 5.47821 31.2235 1.5 
52 1 28.3855 5.82404 31.0631 1.98205 
162 4 34.1846 7.12486 33.8233 1.5 
20 4 40.421 5.73056 32.9572 1.5 
31 3 10.0148 8.02175 32.8132 2.25 
137 4 16.0106 8.37906 31.4113 1.5 
74 4 20.725 9.00528 31.528 1.5 
123 4 23.6967 8.97223 31.5579 1.5 
131 4 5.50963 10.3022 31.9656 1.5 
76 2 12.5901 11.9097 30.0088 1.98205 
78 1 17.4452 11.5074 30.4371 1.98205 
100 1 31.9463 11.0168 32.5825 1.98205 
8 3 36.9061 10.8588 31.9149 2.25 
109 1 41.3566 10.1458 31.8497 1.98205 
12 4 8.08498 14.2599 32.4379 1.5 
122 4 19.5846 14.7994 32.9089 1.5 
4 2 34.5883 14.8015 30.0745 1.98205 
167 4 11.9954 15.8665 31.9514 1.5 
108 1 15.6509 15.3342 32.8525 1.98205 
58 1 40.5691 15.5387 32.772 1.98205 
139 1 43.9417 17.3951 30.8654 1.98205 
175 4 5.43126 18.0883 32.393 1.5 
83 4 20.7761 18.1354 31.2312 1.5 
161 4 35.5727 18.2058 32.4011 1.5 
151 4 38.7963 19.8673 33.6387 1.5 
129 4 6.2577 22.0006 32.6808 1.5 
152 4 14.478 21.1618 32.2857 1.5 
165 4 19.9571 20.403 32.9773 1.5 
62 3 28.0605 22.2562 30.5556 2.25 
75 2 33.063 20.4779 30.4955 1.98205 
117 4 44.7439 21.0504 30.7661 1.5 
170 4 8.67807 23.436 29.9705 1.5 
65 4 16.5464 24.6393 32.876 1.5 
159 4 24.3193 24.7294 30.4801 1.5 
26 4 6.02463 27.3974 30.4008 1.5 
104 1 11.6509 26.0794 31.9128 1.98205 
144 4 20.966 25.358 34.278 1.5 
80 2 44.8727 26.3015 30.3221 1.98205 
33 4 10.6178 29.7068 32.1813 1.5 
172 4 16.9155 28.4805 31.3482 1.5 
86 2 20.5664 28.9673 30.4328 1.98205 
148 4 6.03211 31.6315 31.4508 1.5 
72 4 29.1584 30.3731 32.8057 1.5 
94 2 38.7542 31.0878 31.9446 1.98205 
43 1 44.2209 30.5134 31.1416 1.98205 
7 4 9.71165 33.7472 32.6171 1.5 
145 4 23.5249 32.8311 32.3468 1.5 
22 1 29.2297 34.1762 31.3392 1.98205 
147 3 13.7839 35.4913 30.6592 2.25 
38 2 19.9338 37.4351 32.5224 1.98205 
156 4 31.0554 37.4052 33.5239 1.5 
70 4 39.1378 36.8304 32.287 1.5 
60 2 43.6357 35.3381 31.5121 1.98205 
92 4 11.6781 38.5366 31.0975 1.5 
135 1 34.5254 39.2362 31.8927 1.98205 
111 1 43.1457 39.9265 32.1083 1.98205 
49 4 7.01078 41.6889 32.5829 1.5 
95 4 24.3917 40.5919 29.9467 1.5 
61 2 28.509 41.1194 31.3582 1.98205 
153 4 14.3151 44.5904 33.1637 1.5 
134 2 20.9076 43.6489 32.7682 1.98205 
27 4 25.8169 44.0226 30.5063 1.5 
169 4 31.4889 44.5116 32.7244 1.5 
53 2 35.0493 44.1965 31.8984 1.98205 
160 4 39.3466 42.825 33.651 1.5 
176 4 18.7289 26.4717 28.4622 1.5 
177 4 19.9533 44.3597 25.7757 1.5 
178 1 6.21756 27.1363 34.4099 1.98205 
179 2 25.7038 14.2374 34.7355 1.98205 
180 4 25.6024 28.7779 31.619 1.5 
181 1 24.7103 35.8611 34.0937 1.98205 
182 4 30.0984 34.6302 27.0392 1.5 
183 4 20.4502 36.0249 25.2596 1.5 
184 4 44.0913 44.5463 24.581 1.5 
185 4 37.1177 7.0752 29.2488 1.5 
186 4 33.2425 35.2647 31.2348 1.5 
187 4 13.1419 5.9563 30.9266 1.5 
188 4 37.3189 41.3969 30.9054 1.5 
189 1 12.9105 37.0253 25.549 1.98205 
190 2 27.0873 25.5355 33.5898 1.98205 
191 4 39.4753 34.3914 30.0599 1.5 
192 4 13.1316 32.7309 24.4234 1.5 
193 2 35.8573 23.7881 33.0213 1.98205 
194 1 40.7602 27.3173 34.9731 1.98205 
195 1 33.5071 44.6531 27.586 1.98205 
196 2 36.6444 12.0241 26.3927 1.98205 
197 3 10.1978 43.783 33.9726 2.25 
198 2 9.88819 40.8315 24.4519 1.98205 
199 1 32.0445 25.5511 32.2975 1.98205 
200 4 9.61646 33.8545 28.2796 1.5 
201 4 5.51883 5.00946 28.3965 1.5 
202 2 9.36304 14.6871 28.4944 1.98205 
203 2 41.1413 31.6872 26.9006 1.98205 
204 4 16.8281 16.2215 27.8631 1.5 
205 4 17.8636 43.4457 30.9116 1.5 
206 4 12.5915 29.289 29.5891 1.5 
207 4 17.0362 19.2973 34.0379 1.5 
208 2 25.4542 19.0405 33.138 1.98205 
209 2 35.3842 32.442 34.8196 1.98205 
210 4 42.0481 32.4337 34.4587 1.5 
211 4 33.3806 19.4152 34.3252 1.5 
212 4 37.1091 5.75659 34.6605 1.5 
213 4 34.0348 33.0928 24.7717 1.5 
214 1 5.98789 8.41573 27.1053 1.98205 
215 4 26.8223 44.1065 33.6623 1.5 
216 4 7.80082 38.4047 31.4956 1.5 
217 4 27.0696 8.26015 33.4491 1.5 
218 2 14.7 32.682 34.4548 1.98205 
219 2 6.13708 35.8927 34.0117 1.98205 
220 4 41.9691 23.8487 32.105 1.5 
221 4 13.6888 9.2073 33.1643 1.5 
222 4 27.0451 37.3862 30.0562 1.5 
223 2 42.6018 19.0568 34.8616 1.98205 
224 4 38.0036 16.352 29.3186 1.5 
225 2 30.1403 17.6645 34.7648 1.98205 
ITEM: TIMESTEP
3000
ITEM: NUMBER OF ATOMS
295
ITEM: BOX BOUNDS pp pp fm
0.0000000000000000e+00 5.0000000000000000e+01
0.0000000000000000e+00 5.0000000000000000e+01
0.0000000000000000e+00 5.0000000000000000e+01
ITEM: ATOMS id type x y z radius 
105 4 36.7871 10.1239 7.40912 1.5 
81 3 44.998 11.9079 7.4502 2.25 
101 1 12.05 14.1463 7.18621 1.98205 
98 4 17.9739 17.6706 7.22655 1.5 
132 3 15.0944 21.6208 7.56299 2.25 
91 4 44.2599 5.99441 9.45083 1.5 
17 2 19.2467 10.1012 8.48249 1.98205 
110 3 30.6518 14.5026 9.93477 2.25 
93 3 8.09262 22.7273 10.0669 2.25 
85 3 30.6739 25.536 11.1444 2.25 
24 1 25.8404 29.6927 8.77204 1.98205 
67 4 34.9225 32.2551 9.99235 1.5 
34 3 18.063 35.0367 8.72035 2.25 
89 4 25.334 38.7834 10.5281 1.5 
18 3 5.13383 14.3145 11.9739 2.25 
54 4 38.0605 13.4531 13.0378 1.5 
102 1 21.332 16.1335 11.7641 1.98205 
32 1 18.5861 27.1742 11.3168 1.98205 
23 4 5.48533 41.9914 11.3686 1.5 
138 2 43.9339 6.81903 16.1758 1.98205 
113 4 25.2536 8.04822 16.7594 1.5 
77 4 37.5223 7.61782 16.8405 1.5 
5 1 31.0776 10.9359 14.9603 1.98205 
47 1 17.3573 14.1396 16.992 1.98205 
116 3 6.67395 19.1383 17.0392 2.25 
115 2 30.1499 19.4046 14.7343 1.98205 
88 3 38.9961 18.115 14.5105 2.25 
171 4 33.9404 20.3468 15.5222 1.5 
90 4 10.7392 23.9158 14.5972 1.5 
42 4 16.018 23.7657 15.5711 1.5 
166 4 41.4906 23.0232 16.5983 1.5 
14 1 21.4373 26.765 16.8959 1.98205 
130 4 5.99156 30.2131 14.3994 1.5 
35 2 44.2781 31.9801 14.7876 1.98205 
46 1 12.3105 32.777 14.3127 1.98205 
140 1 36.1459 34.8854 14.397 1.98205 
119 4 11.4635 36.9034 15.34 1.5 
103 1 32.2459 35.1086 16.4817 1.98205 
155 4 31.4141 38.6149 15.723 1.5 
68 2 14.5172 40.7147 15.2664 1.98205 
30 2 12.5468 44.2677 17.1595 1.98205 
99 2 19.5272 43.5822 16.2617 1.98205 
84 4 29.4755 44.519 14.6715 1.5 
25 1 40.002 43.8102 16.9652 1.98205 
64 4 44.1866 44.274 15.5079 1.5 
6 3 9.83138 6.02947 17.6833 2.25 
50 3 20.1128 6.34379 17.797 2.25 
158 1 15.4269 9.96466 19.0909 1.98205 
96 4 34.3499 9.59036 17.9872 1.5 
51 2 8.63225 12.2098 18.7085 1.98205 
2 1 24.4328 11.9571 19.7924 1.98205 
121 3 40.8688 12.075 17.902 2.25 
127 1 13.0712 17.2548 18.2558 1.98205 
174 4 38.0963 15.1265 19.7818 1.5 
82 4 33.6778 18.5404 17.8713 1.5 
39 3 8.09274 24.765 19.7974 2.25 
21 4 12.2722 28.7372 18.9826 1.5 
15 4 34.808 27.5045 19.4749 1.5 
69 4 40.9388 28.2994 20.1303 1.5 
157 2 6.00834 32.1752 19.8589 1.98205 
87 2 30.3482 31.6541 19.0435 1.98205 
192 4 13.1316 32.7309 19.3236 1.5 
213 4 34.0348 33.0928 19.7483 1.5 
97 2 17.9964 35.3427 17.2228 1.98205 
40 4 43.5596 36.7767 17.6648 1.5 
163 2 6.08019 39.6982 19.3055 1.98205 
73 2 20.7931 39.2555 17.2519 1.98205 
168 4 40.1445 39.2781 17.3446 1.5 
198 2 9.88819 40.8315 19.3583 1.98205 
56 4 26.3742 40.392 18.2264 1.5 
125 2 25.0226 44.8771 17.2762 1.98205 
154 4 32.9454 43.4741 17.3776 1.5 
184 4 44.095 44.5354 19.3904 1.5 
107 1 14.2557 5.92156 22.6535 1.98205 
66 1 33.3715 5.4788 22.8962 1.98205 
214 1 5.98789 8.41573 22.6312 1.98205 
126 1 28.5024 9.67006 23.0629 1.98205 
196 2 36.6444 12.0241 21.7431 1.98205 
128 4 44.5055 14.4436 21.488 1.5 
63 4 5.31754 16.7738 23.1789 1.5 
41 1 18.4216 22.0886 22.2683 1.98205 
173 4 31.9136 21.4641 21.1559 1.5 
3 3 39.8508 21.628 23.0487 2.25 
133 4 12.3099 23.0444 21.4909 1.5 
142 1 34.4722 23.8069 23.1264 1.98205 
29 2 15.8444 26.6322 20.5891 1.98205 
57 4 30.7377 26.1142 22.6674 1.5 
45 3 26.0688 28.4917 22.7697 2.25 
9 4 21.4828 32.2024 20.7669 1.5 
203 2 41.1413 31.6872 22.3753 1.98205 
182 4 30.0984 34.6302 22.5485 1.5 
189 1 12.9105 37.0253 20.7009 1.98205 
183 4 20.4502 36.0249 20.3454 1.5 
48 3 25.4147 35.1083 22.3892 2.25 
143 3 40.2824 36.2978 21.1171 2.25 
16 1 32.4692 40.5425 21.9213 1.98205 
112 4 5.25722 43.6491 22.2981 1.5 
177 4 19.9533 44.3597 20.98 1.5 
195 1 33.5071 44.6531 23.2348 1.98205 
201 4 5.51883 5.00946 24.2619 1.5 
136 4 19.421 7.03628 26.3946 1.5 
185 4 37.1177 7.0752 25.3569 1.5 
79 2 44.5597 5.58172 24.14 1.98205 
76 2 12.5901 11.9097 26.3491 1.98205 
202 2 9.36304 14.6871 24.3868 1.98205 
164 4 22.4816 13.4605 24.6042 1.5 
59 1 29.0786 13.6609 25.9107 1.98205 
4 2 34.5883 14.8015 26.4357 1.98205 
204 4 17.0441 16.6053 24.3447 1.5 
114 4 24.4973 16.5832 25.3721 1.5 
224 4 38.0036 16.352 25.4473 1.5 
44 3 10.7842 19.7618 25.032 2.25 
37 1 29.1598 18.0735 25.5413 1.98205 
124 2 23.31 21.3439 25.2458 1.98205 
170 4 8.61694 23.3997 26.327 1.5 
176 4 18.7289 26.4717 24.3457 1.5 
141 4 30.2256 27.4913 25.2543 1.5 
55 1 37.9018 25.7318 25.761 1.98205 
206 4 12.3386 29.3425 26.2709 1.5 
36 2 16.5611 31.9207 25.5685 1.98205 
1 3 33.7515 30.7048 25.3319 2.25 
200 4 9.61646 33.8545 24.1129 1.5 
191 4 39.4361 34.6747 26.7905 1.5 
10 2 5.90621 35.7479 24.2511 1.98205 
118 4 10.4708 37.4449 24.984 1.5 
222 4 27.0451 37.3862 26.4113 1.5 
71 1 35.5016 35.4727 24.4261 1.98205 
120 4 36.9649 39.4213 23.5493 1.5 
11 2 15.85 40.7834 24.3652 1.98205 
95 4 24.3917 40.5919 26.2674 1.5 
19 1 10.0669 44.4148 25.1846 1.98205 
149 4 13.6525 44.0499 23.3819 1.5 
146 4 38.2658 43.8079 25.6791 1.5 
13 3 42.1321 44.2945 26.0096 2.25 
106 2 5.2 6.42434 28.7972 1.98205 
187 4 13.1419 5.9563 27.5719 1.5 
150 4 22.3547 5.47821 27.9749 1.5 
52 1 28.3854 5.82449 27.7572 1.98205 
137 4 15.9558 8.40336 28.601 1.5 
74 4 20.7245 9.00665 28.2026 1.5 
123 4 23.699 8.96416 28.2405 1.5 
131 4 5.50963 10.3022 29.0021 1.5 
78 1 17.4452 11.5074 26.9161 1.98205 
8 3 36.9061 10.8588 28.9308 2.25 
109 1 41.3566 10.1458 28.8396 1.98205 
12 4 8.11405 14.1884 29.6031 1.5 
167 4 11.9954 15.8665 28.9819 1.5 
139 1 43.9417 17.3951 27.4895 1.98205 
175 4 5.42677 18.053 29.5061 1.5 
28 4 17.7664 17.8008 26.9721 1.5 
83 4 20.5273 17.9828 28.0687 1.5 
161 4 35.4059 18.2978 30.105 1.5 
152 4 14.5422 21.1625 29.4074 1.5 
62 3 28.0605 22.2562 27.0741 2.25 
75 2 33.063 20.4779 26.9938 1.98205 
117 4 44.7439 21.0504 27.356 1.5 
159 4 24.3193 24.7294 26.9731 1.5 
220 4 41.9665 23.8143 29.2091 1.5 
26 4 6.02419 27.3976 26.8743 1.5 
104 1 11.6509 26.0794 28.9279 1.98205 
199 1 32.0437 25.5516 29.4705 1.98205 
80 2 44.8727 26.3015 26.7633 1.98205 
33 4 10.8707 29.6532 28.8377 1.5 
172 4 16.9155 28.4805 28.1454 1.5 
86 2 20.5664 28.9673 26.9102 1.98205 
180 4 25.5889 28.8273 28.4537 1.5 
148 4 6.03211 31.6315 28.2862 1.5 
94 2 38.7542 31.0878 28.9726 1.98205 
43 1 44.2209 30.5134 27.8635 1.98205 
145 4 23.4857 32.8579 29.5122 1.5 
22 1 29.2297 34.1762 28.1333 1.98205 
147 3 13.7839 35.4913 27.2125 2.25 
38 2 19.9338 37.4351 29.7963 1.98205 
186 4 33.3061 35.2564 27.8884 1.5 
70 4 39.177 36.5471 29.0851 1.5 
60 2 43.6357 35.3381 28.3708 1.98205 
216 4 7.80082 38.4047 28.3477 1.5 
92 4 11.6781 38.5367 27.4742 1.5 
135 1 34.5254 39.2362 28.8996 1.98205 
111 1 43.1457 39.9265 29.2033 1.98205 
61 2 28.509 41.1194 28.1593 1.98205 
188 4 37.3848 41.497 27.3323 1.5 
205 4 17.8636 43.4457 27.5517 1.5 
27 4 25.9497 44.0337 27.4039 1.5 
53 2 35.0493 44.1965 28.9077 1.98205 
162 4 34.402 7.02313 31.9959 1.5 
212 4 36.8917 5.85831 33.1315 1.5 
20 4 40.4206 5.74741 30.5275 1.5 
31 3 10.0148 8.02175 30.2219 2.25 
221 4 13.7257 9.20542 30.4025 1.5 
217 4 27.0697 8.2597 31.1873 1.5 
100 1 31.9463 11.0168 29.8835 1.98205 
122 4 19.5872 14.8059 30.3638 1.5 
179 2 25.7038 14.2374 33.5079 1.98205 
108 1 15.6509 15.3342 30.28 1.98205 
58 1 40.5691 15.5387 30.1611 1.98205 
207 4 17.4983 19.4423 31.7457 1.5 
208 2 25.4542 19.0405 30.7078 1.98205 
225 2 30.1403 17.6645 33.5786 1.98205 
211 4 33.5474 19.3231 32.1894 1.5 
151 4 38.8581 19.8837 31.4649 1.5 
223 2 42.6018 19.0568 33.8352 1.98205 
129 4 6.31882 22.0369 30.0051 1.5 
165 4 19.716 20.1837 29.9071 1.5 
65 4 16.5334 24.6517 30.2177 1.5 
193 2 35.8573 23.7881 30.5316 1.98205 
178 1 6.21801 27.1361 32.8174 1.98205 
144 4 20.9347 25.2873 32.5903 1.5 
190 2 27.0873 25.5355 31.41 1.98205 
194 1 40.7602 27.3173 34.2409 1.98205 
72 4 29.1724 30.3355 30.1987 1.5 
209 2 35.3842 32.442 33.7187 1.98205 
210 4 42.0481 32.4337 32.9177 1.5 
7 4 9.71165 33.7472 29.9339 1.5 
218 2 14.7 32.682 32.9102 1.98205 
219 2 6.13708 35.8927 32.1053 1.98205 
181 1 24.7103 35.8611 32.2469 1.98205 
156 4 31.0559 37.4045 31.3062 1.5 
49 4 7.00109 41.6998 29.883 1.5 
197 3 10.1978 43.783 32.0388 2.25 
153 4 14.3253 44.576 30.7681 1.5 
134 2 20.9076 43.6489 30.1554 1.98205 
215 4 26.6895 44.0954 31.14 1.5 
169 4 31.4889 44.5116 30.0908 1.5 
160 4 39.2811 42.8971 31.4549 1.5 
226 1 31.7377 34.4555 33.7852 1.98205 
227 1 5.83984 40.1572 24.3741 1.98205 
228 3 34.7856 10.9941 34.5406 2.25 
229 2 36.2105 39.9508 34.8673 1.98205 
230 4 22.5397 34.1852 26.5043 1.5 
231 3 29.5872 41.7908 33.7682 2.25 
232 2 11.3365 23.3575 34.9434 1.98205 
233 2 24.0826 6.78568 25.0196 1.98205 
234 3 15.9521 37.0025 32.6646 2.25 
235 1 32.4029 5.32625 28.1463 1.98205 
236 1 16.7537 28.9499 34.3749 1.98205 
237 4 17.502 5.93247 34.2561 1.5 
238 4 40.9899 6.62548 24.9793 1.5 
239 2 10.8841 19.4518 29.7356 1.98205 
240 1 23.9566 13.4371 28.2161 1.98205 
241 1 14.6445 20.4011 34.6824 1.98205 
242 1 44.2931 44.5076 32.5996 1.98205 
243 4 16.1476 25.0193 27.124 1.5 
244 4 44.1782 33.5069 25.0498 1.5 
245 2 22.0621 7.85234 32.7052 1.98205 
246 4 40.3676 27.5332 29.629 1.5 
247 2 20.6759 29.2861 32.1421 1.98205 
248 4 23.2898 40.8731 30.8263 1.5 
249 2 9.10987 39.5674 34.3047 1.98205 
250 4 19.1441 44.7286 34.0168 1.5 
251 1 40.2871 35.7092 34.2591 1.98205 
252 4 25.7429 31.4148 32.5547 1.5 
253 1 43.6708 24.6778 32.7773 1.98205 
254 2 36.7232 16.1247 34.218 1.98205 
255 1 6.80295 18.6093 34.3601 1.98205 
256 4 25.0947 30.6493 25.9334 1.5 
257 4 15.5543 42.848 33.6295 1.5 
258 4 12.0225 11.3412 32.5137 1.5 
259 1 37.2165 27.7625 31.7812 1.98205 
260 3 31.0578 37.8472 25.3431 2.25 
261 2 29.1882 15.8298 29.5707 1.98205 
262 4 19.9615 23.2728 27.9647 1.5 
263 1 13.4036 5.11683 34.6842 1.98205 
264 4 40.9687 10.9208 23.7847 1.5 
265 4 40.4092 6.28276 33.7792 1.5 
266 4 37.9373 21.5784 27.0702 1.5 
267 4 5.30983 17.152 26.5006 1.5 
268 4 35.7592 14.1507 30.9673 1.5 
269 4 17.015 21.1901 27.7479 1.5 
270 4 8.91971 12.2042 27.5201 1.5 
271 3 23.8027 22.4822 32.8465 2.25 
272 4 8.85707 30.7439 32.096 1.5 
273 4 30.0428 19.4627 29.9199 1.5 
274 2 31.0465 8.9136 33.6283 1.98205 
275 4 44.3332 38.2785 32.6266 1.5 
276 4 12.2706 42.1413 27.5142 1.5 
277 4 32.6621 42.3962 26.4732 1.5 
278 4 44.0815 7.77245 31.8016 1.5 
279 4 33.8998 44.1003 34.3461 1.5 
280 2 16.8454 10.6626 33.5658 1.98205 
281 1 7.3304 12.0831 34.908 1.98205 
282 4 16.5344 44.3476 24.0561 1.5 
283 3 21.8839 11.8985 34.2182 2.25 
284 1 25.6054 39.8593 33.8888 1.98205 
285 2 16.2878 39.384 28.6227 1.98205 
286 2 5.68064 44.5009 28.0907 1.98205 
287 4 19.719 22.5372 33.2028 1.5 
288 1 12.8807 16.0766 33.8285 1.98205 
289 4 41.6859 20.6656 30.2918 1.5 
290 4 7.45424 22.0808 34.3933 1.5 
291 4 19.8312 34.6992 25.1363 1.5 
292 4 31.5618 28.5235 32.2469 1.5 
293 4 38.8555 9.14509 32.3459 1.5 
294 2 10.1289 6.16718 24.7951 1.98205 
295 4 20.6892 33.8558 29.7236 1.5 
ITEM: TIMESTEP
4000
ITEM: NUMBER OF ATOMS
351
ITEM: BOX BOUNDS pp pp fm
0.0000000000000000e+00 5.0000000000000000e+01
0.0000000000000000e+00 5.0000000000000000e+01
0.0000000000000000e+00 5.0000000000000000e+01
ITEM: ATOMS id type x y z radius 
105 4 36.7871 10.1239 1.63076 1.5 
81 3 45.0181 11.5008 2.28328 2.25 
101 1 12.3639 13.8518 2.02116 1.98205 
98 4 17.9739 17.6706 1.64874 1.5 
132 3 14.805 20.9847 0.829674 2.25 
91 4 44.2599 5.99441 1.80223 1.5 
17 2 19.1388 9.75155 1.42651 1.98205 
110 3 30.6518 14.5026 2.3542 2.25 
93 3 8.09262 22.7273 2.50506 2.25 
24 1 25.9951 29.8617 1.64853 1.98205 
67 4 34.9225 32.2551 2.41991 1.5 
34 3 18.063 35.0367 0.970283 2.25 
18 3 5.13383 14.3145 4.68741 2.25 
102 1 21.332 16.1335 4.44676 1.98205 
32 1 18.5861 27.1742 3.93419 1.98205 
85 3 30.6739 25.536 3.73679 2.25 
89 4 25.334 38.7834 3.03181 1.5 
23 4 5.48533 41.9914 3.99357 1.5 
5 1 31.0776 10.9359 8.12921 1.98205 
54 4 38.0605 13.4531 5.90995 1.5 
115 2 30.1499 19.4046 7.86766 1.98205 
88 3 38.9961 18.115 7.60874 2.25 
90 4 10.7392 23.9158 7.70906 1.5 
130 4 5.99156 30.2131 7.48036 1.5 
35 2 44.2781 31.9801 7.92924 1.98205 
46 1 12.3105 32.777 7.38013 1.98205 
140 1 36.1459 34.8854 7.47751 1.98205 
84 4 29.4755 44.519 7.79496 1.5 
138 2 43.9339 6.81903 9.53965 1.98205 
113 4 25.2536 8.04822 10.2192 1.5 
77 4 37.5223 7.61782 10.3137 1.5 
47 1 17.3573 14.1396 10.4904 1.98205 
116 3 6.67395 19.1383 10.5455 2.25 
171 4 33.9404 20.3468 8.97869 1.5 
42 4 16.018 23.7657 8.83718 1.5 
166 4 41.4906 23.0232 10.0314 1.5 
14 1 21.4373 26.765 10.3783 1.98205 
119 4 11.4635 36.9034 8.56919 1.5 
97 2 17.9964 35.3427 10.7598 1.98205 
103 1 32.2413 35.1503 9.87448 1.98205 
40 4 43.5596 36.7767 11.2764 1.5 
73 2 20.7931 39.2555 10.7938 1.98205 
155 4 31.4187 38.5732 9.0347 1.5 
168 4 40.1445 39.2781 10.902 1.5 
68 2 14.5172 40.7147 8.48385 1.98205 
30 2 12.5468 44.2677 10.6859 1.98205 
99 2 19.5272 43.5822 9.63968 1.98205 
125 2 25.0226 44.8771 10.8222 1.98205 
154 4 32.9454 43.4741 10.9406 1.5 
25 1 40.002 43.8102 10.4591 1.98205 
64 4 44.1828 44.2848 8.87 1.5 
6 3 9.83138 6.02947 11.2981 2.25 
50 3 20.1128 6.34379 11.4311 2.25 
158 1 15.4269 9.96466 12.9498 1.98205 
96 4 34.3499 9.59036 11.6538 1.5 
51 2 8.63225 12.2098 12.5001 1.98205 
2 1 24.4328 11.9571 13.7772 1.98205 
121 3 40.8688 12.075 11.554 2.25 
127 1 13.0712 17.2548 11.9687 1.98205 
174 4 38.0963 15.1265 13.7646 1.5 
82 4 33.6778 18.5404 11.3278 1.5 
39 3 8.09274 24.765 13.7831 2.25 
21 4 12.2722 28.7372 12.8225 1.5 
15 4 34.808 27.5045 13.4024 1.5 
69 4 40.9388 28.2994 14.1766 1.5 
157 2 6.00834 32.1752 13.8556 1.98205 
87 2 30.3482 31.6541 12.8941 1.98205 
192 4 13.1316 32.7309 13.2239 1.5 
213 4 34.0348 33.0928 13.7249 1.5 
163 2 6.08019 39.6982 13.2026 1.98205 
198 2 9.88819 40.8315 13.2648 1.98205 
56 4 26.3742 40.392 11.9342 1.5 
184 4 44.0988 44.5246 13.1993 1.5 
214 1 5.98789 8.41573 17.1571 1.98205 
196 2 36.6444 12.0241 16.0936 1.98205 
128 4 44.5055 14.4436 15.7893 1.5 
41 1 18.4216 22.0886 16.7219 1.98205 
173 4 31.9136 21.4641 15.3937 1.5 
133 4 12.3099 23.0444 15.7928 1.5 
29 2 15.8444 26.6322 14.7203 1.98205 
9 4 21.4828 32.2024 14.9313 1.5 
203 2 41.1413 31.6872 16.8501 1.98205 
182 4 30.0984 34.6302 17.0579 1.5 
189 1 12.9105 37.0253 14.8528 1.98205 
183 4 20.4502 36.0249 14.4312 1.5 
48 3 25.4147 35.1083 16.8669 2.25 
143 3 40.2824 36.2978 15.3475 2.25 
16 1 32.4692 40.5425 16.3066 1.98205 
112 4 5.26691 43.6383 16.7623 1.5 
177 4 19.9533 44.3597 15.1843 1.5 
201 4 5.51883 5.00946 19.1273 1.5 
294 2 10.1289 6.16718 19.7769 1.98205 
107 1 14.2557 5.92156 17.1841 1.98205 
233 2 24.0826 6.78568 20.0514 1.98205 
66 1 33.3715 5.4788 17.4759 1.98205 
238 4 40.9899 6.62548 20.002 1.5 
79 2 44.5597 5.58172 18.9794 1.98205 
126 1 28.5024 9.67006 17.6766 1.98205 
264 4 40.9687 10.9208 18.5481 1.5 
202 2 9.36304 14.6871 19.2793 1.98205 
164 4 22.4825 13.4605 19.5458 1.5 
63 4 5.31631 16.8323 18.2909 1.5 
204 4 17.0315 16.6571 20.2098 1.5 
44 3 10.7842 19.7618 20.0668 2.25 
3 3 39.8508 21.628 17.6595 2.25 
142 1 34.4722 23.8069 17.753 1.98205 