ITEM: TIMESTEP
0
ITEM: NUMBER OF ATOMS
0
ITEM: BOX BOUNDS pp pp ff
0.0000000000000000e+00 2.0000000000000000e+01
0.0000000000000000e+00 2.0000000000000000e+01
0.0000000000000000e+00 2.0000000000000000e+01
ITEM: ATOMS id type mass diameter x y z 
ITEM: TIMESTEP
10000
ITEM: NUMBER OF ATOMS
444
ITEM: BOX BOUNDS pp pp ff
0.0000000000000000e+00 2.0000000000000000e+01
0.0000000000000000e+00 2.0000000000000000e+01
0.0000000000000000e+00 2.0000000000000000e+01
ITEM: ATOMS id type mass diameter x y z 
306 1 0.611889 1.05331 3.54253 7.25502 8.11551 
72 1 0.664987 1.08294 13.8506 6.61424 8.01573 
412 1 0.684596 1.09348 6.29292 9.14506 8.02103 
65 1 0.81414 1.15851 15.1455 9.59108 8.09097 
280 1 0.162249 0.676698 8.94074 15.0734 8.01858 
396 1 0.848267 1.17448 12.6756 3.31705 8.23556 
265 1 0.268557 0.800472 6.57732 5.0972 8.9251 
128 1 0.321318 0.849791 12.9185 5.66659 8.94731 
216 1 0.664445 1.08265 13.7553 5.47208 8.23677 
41 1 0.196037 0.720742 5.07424 6.72502 8.27208 
177 1 0.135927 0.637924 7.02676 6.71975 9.05469 
207 1 0.284287 0.815805 2.92952 8.41992 8.74575 
425 1 0.326613 0.854434 8.16643 9.12476 8.58217 
442 1 0.38206 0.90028 11.7269 9.23783 8.53451 
317 1 0.257168 0.788992 14.2088 11.6844 8.2856 
52 1 0.276232 0.808026 4.35865 11.8202 8.92306 
244 1 0.726047 1.11512 8.35605 12.0719 8.37087 
342 1 0.396565 0.911532 10.558 12.1123 8.71279 
228 1 0.337355 0.8637 16.7735 12.4868 8.26973 
18 1 0.675727 1.08874 8.90836 14.8478 9.0821 
333 1 0.539469 1.01 15.8102 14.8425 8.88719 
168 1 0.290697 0.82189 13.0258 16.2015 8.87227 
230 1 0.373356 0.893391 7.83463 16.581 8.31163 
34 1 0.355441 0.878866 10.1508 16.7724 8.77735 
364 1 0.125437 0.621072 10.0129 2.67691 9.14008 
299 1 0.470785 0.965179 9.02289 3.70668 9.74302 
164 1 0.185361 0.707414 12.6405 4.10448 9.48024 
370 1 0.830105 1.16603 11.2164 6.2457 9.51874 
209 1 0.622285 1.05925 6.01766 6.8472 9.11228 
271 1 0.492355 0.9797 10.4273 7.1667 9.64697 
190 1 0.399653 0.913892 12.0866 6.73291 9.11252 
74 1 0.221253 0.750407 4.41554 8.03694 9.38461 
253 1 0.375191 0.894852 14.715 7.81647 9.72862 
167 1 0.719711 1.11187 6.39286 8.82853 9.47172 
99 1 0.316576 0.84559 8.04837 9.01856 9.6209 
66 1 0.351615 0.875702 12.4674 8.39505 9.81939 
419 1 0.114537 0.602536 2.56212 9.61117 9.33836 
319 1 0.80167 1.15257 4.83543 9.14097 9.86221 
352 1 0.471682 0.965792 9.16033 9.60246 9.80865 
282 1 0.886771 1.19199 9.12612 10.7265 9.29871 
443 1 0.159955 0.673493 12.3791 11.6994 9.69603 
354 1 0.357629 0.880666 14.3078 11.465 9.57303 
402 1 0.169856 0.687112 4.36059 12.483 9.83509 
343 1 0.344226 0.869525 8.61497 11.8791 9.56914 
81 1 0.367474 0.888674 5.9676 13.502 9.58084 
441 1 0.189726 0.712923 4.62444 14.8882 9.74729 
191 1 0.269494 0.801401 11.2741 15.4211 9.5213 
248 1 0.356349 0.879614 9.36636 16.3852 9.15667 
236 1 0.364085 0.885934 9.96999 17.5918 9.7731 
108 1 0.139982 0.644206 6.35348 2.89613 10.8336 
203 1 0.464065 0.960565 7.90142 3.17771 10.4071 
224 1 0.138088 0.641286 10.0367 3.39228 10.402 
143 1 0.647173 1.07318 6.26406 4.0424 10.3781 
288 1 0.84937 1.17499 9.84454 5.21778 10.1137 
387 1 0.384109 0.901887 15.306 4.59153 10.8467 
372 1 0.66275 1.08173 4.46682 5.87409 10.3288 
285 1 0.552445 1.01804 16.4456 5.67721 10.0732 
316 1 0.338682 0.864831 13.3213 6.84187 10.6364 
287 1 0.793698 1.14873 16.6237 6.94213 10.3259 
67 1 0.257794 0.789632 5.37513 7.78523 10.5109 
45 1 0.351508 0.875613 7.96737 7.52947 10.2637 
437 1 0.233319 0.763807 10.0684 7.61945 10.7892 
131 1 0.756203 1.13035 2.15843 8.76724 10.4771 
435 1 0.284938 0.816427 9.80384 9.17582 10.3971 
206 1 0.329204 0.856687 13.8098 9.25533 10.5962 
40 1 0.62382 1.06012 11.9649 10.8339 10.6306 
401 1 0.150837 0.660445 4.48332 11.097 10.3294 
61 1 0.473194 0.966822 6.94041 11.3962 10.7473 
295 1 0.578689 1.03391 7.93617 11.1513 10.3791 
24 1 0.374144 0.894019 8.11808 12.6426 10.0326 
119 1 0.47341 0.96697 9.11004 12.4598 10.5005 
98 1 0.12526 0.620781 3.72566 13.1221 10.5074 
117 1 0.275027 0.806849 4.89279 13.1551 10.5733 
225 1 0.194147 0.718418 3.49819 14.1041 10.3116 
188 1 0.451774 0.952008 7.45081 13.8209 10.2683 
176 1 0.297417 0.828175 9.84601 13.9574 10.62 
48 1 0.473578 0.967084 12.3155 15.1678 10.0477 
181 1 0.211593 0.739324 12.9773 17.0691 10.1889 
110 1 0.5823 1.03605 11.8397 17.6615 10.0789 
403 1 0.540608 1.01071 10.7726 3.78354 11.6804 
88 1 0.235394 0.766065 14.0732 3.75699 11.0853 
157 1 0.531405 1.00494 4.8647 5.02089 10.9729 
16 1 0.722694 1.1134 5.93852 4.78468 11.6862 
86 1 0.194168 0.718444 6.34983 5.60564 11.75 
171 1 0.611222 1.05293 7.90537 5.48146 11.2038 
134 1 0.824885 1.16359 9.81602 5.93142 11.3502 
414 1 0.882697 1.19016 11.7371 6.08025 11.0252 
19 1 0.557392 1.02107 14.2828 6.22485 11.1784 
212 1 0.184278 0.706033 15.4394 6.22811 11.6291 
102 1 0.6559 1.07799 4.8648 6.61947 11.7259 
318 1 0.375729 0.89528 15.7708 7.68084 11.4113 
87 1 0.120162 0.612242 16.8599 7.83273 11.441 
406 1 0.341537 0.867254 5.79408 9.03253 10.9311 
261 1 0.769507 1.13694 11.9696 8.4374 11.059 
49 1 0.375897 0.895413 3.51791 9.49516 11.295 
12 1 0.134519 0.635714 8.3578 9.53412 11.4375 
432 1 0.321357 0.849825 2.38796 10.4081 11.2531 
166 1 0.644419 1.07166 17.1656 10.2144 11.0103 
150 1 0.489703 0.977938 12.9027 11.0343 11.4603 
219 1 0.434408 0.93965 15.0589 11.4793 11.6144 
124 1 0.382004 0.900236 3.85315 11.8399 11.4294 
393 1 0.777108 1.14067 13.3492 12.1359 11.0093 
105 1 0.475747 0.968558 16.9306 12.5426 11.3861 
153 1 0.307911 0.837804 6.40932 13.3966 11.0017 
298 1 0.667781 1.08446 8.60936 13.5755 10.9478 
107 1 0.163027 0.677777 12.7552 13.4082 11.1674 
135 1 0.619494 1.05766 15.0743 13.5196 11.5878 
376 1 0.800105 1.15182 6.16473 14.6195 11.3832 
254 1 0.164566 0.679904 5.75257 15.4475 11.44 
53 1 0.291042 0.822216 15.9807 15.0639 11.7684 
175 1 0.648901 1.07414 8.27923 17.0146 11.1255 
251 1 0.155493 0.667171 11.1866 17.2694 11.7954 
353 1 0.540086 1.01039 12.3337 17.0075 11.6491 
311 1 0.284898 0.816389 8.60975 4.02139 12.47 
279 1 0.850616 1.17556 8.61267 5.08972 12.2876 
335 1 0.783068 1.14358 11.758 4.9489 12.1956 
260 1 0.599621 1.04623 13.206 4.82009 12.6713 
371 1 0.588561 1.03975 14.5549 4.6047 12.521 
356 1 0.729739 1.11701 6.17093 6.84105 12.5838 
249 1 0.240854 0.771943 8.64995 7.76852 11.8388 
305 1 0.211179 0.73884 4.24232 8.67741 12.6818 
95 1 0.808693 1.15592 6.58042 9.0544 12.1809 
156 1 0.196543 0.721361 10.4292 8.31319 12.7221 
313 1 0.603401 1.04842 13.4318 8.94916 12.1004 
262 1 0.27204 0.803917 7.3906 9.85174 11.8438 
140 1 0.261037 0.792929 16.2326 10.0145 12.1277 
358 1 0.145374 0.652372 17.8187 10.6026 12.4083 
324 1 0.888981 1.19298 11.3576 11.4936 12.4084 
360 1 0.803867 1.15362 16.0376 11.7434 12.1972 
162 1 0.251525 0.783179 4.3825 12.6263 12.5764 
302 1 0.184928 0.706863 8.37417 12.6117 12.1311 
255 1 0.480791 0.971969 9.61836 11.8423 12.5243 
93 1 0.566765 1.02676 5.19552 13.1765 12.6058 
278 1 0.216198 0.744648 8.51131 13.5947 12.1294 
201 1 0.84364 1.17234 4.20363 14.354 12.4893 
235 1 0.172442 0.690581 7.41083 13.7729 12.009 
439 1 0.352505 0.87644 16.5756 14.3155 12.5692 
21 1 0.381265 0.899655 12.186 14.6197 12.2331 
122 1 0.263156 0.795069 5.52888 15.8813 12.1798 
428 1 0.281163 0.812805 9.05597 15.7379 11.9899 
331 1 0.122287 0.615829 8.54776 2.19352 13.4914 
139 1 0.78689 1.14544 12.3596 3.94417 12.8697 
202 1 0.160577 0.674365 15.6192 4.34841 13.0156 
399 1 0.67272 1.08712 4.00412 5.25687 13.1168 
367 1 0.194852 0.719286 8.48991 5.85304 13.3748 
73 1 0.806914 1.15507 10.5528 5.53114 13.562 
407 1 0.370002 0.890707 16.4199 5.46052 13.3963 
345 1 0.652317 1.07602 3.38446 6.57444 13.3061 
31 1 0.791556 1.1477 11.0927 7.05738 13.5001 
281 1 0.673896 1.08776 16.3343 6.7884 13.4579 
344 1 0.120084 0.61211 5.34941 7.53774 13.3756 
204 1 0.298183 0.828886 9.46388 7.40584 12.8716 
114 1 0.124014 0.618714 5.54085 9.022 12.9705 
57 1 0.560462 1.02294 12.8978 8.68941 13.5996 
245 1 0.405074 0.918005 15.7385 8.56938 13.4143 
218 1 0.292385 0.823478 2.05093 9.92693 12.8785 
138 1 0.766499 1.13546 3.0505 9.6975 12.8131 
304 1 0.859689 1.17973 3.2105 10.8842 12.8223 
436 1 0.310948 0.840549 5.02875 10.1457 12.762 
378 1 0.598905 1.04581 16.4364 10.6633 12.985 
51 1 0.188276 0.711103 4.81179 11.7127 12.9235 
420 1 0.113742 0.601137 9.18041 11.1521 13.2128 
334 1 0.160664 0.674487 9.95635 12.3888 13.3908 
312 1 0.607907 1.05102 15.0866 12.3477 13.5925 
258 1 0.15084 0.660449 16.0843 12.0668 13.2165 
415 1 0.142006 0.647295 10.3734 13.9487 13.1803 
4 1 0.60105 1.04706 15.4056 14.5466 13.3345 
44 1 0.213894 0.741994 9.69951 15.664 12.9658 
50 1 0.510776 0.991769 11.913 17.4461 13.2872 
433 1 0.361779 0.884059 11.0258 2.19337 14.0447 
238 1 0.791374 1.14761 8.06618 4.31595 14.0978 
39 1 0.696296 1.09968 14.4207 4.31266 14.1502 
408 1 0.798168 1.15088 5.14174 5.21472 13.9563 
29 1 0.872781 1.18568 11.8666 6.02966 14.3727 
79 1 0.247084 0.778542 6.17091 6.45486 14.0509 
373 1 0.54945 1.01619 17.0664 6.43392 14.4791 
137 1 0.711568 1.10766 7.7589 7.77339 14.2349 
80 1 0.335845 0.862409 10.1817 8.16516 14.5378 
54 1 0.576788 1.03278 14.2609 7.29448 14.2246 
170 1 0.120671 0.613105 3.6721 8.93838 14.1236 
349 1 0.430915 0.937125 8.99747 8.55909 14.0313 
125 1 0.860306 1.18001 17.6377 8.31385 14.27 
256 1 0.489625 0.977886 5.42568 9.44818 14.4157 
263 1 0.678796 1.09039 10.335 9.10906 13.9699 
237 1 0.264068 0.795986 14.7656 9.88502 14.2574 
147 1 0.504438 0.98765 9.98097 10.1606 14.1596 
211 1 0.680011 1.09104 13.014 10.028 13.7403 
192 1 0.129381 0.627515 13.8774 10.0009 14.0511 
149 1 0.693801 1.09836 6.66241 11.1095 13.9279 
151 1 0.165406 0.681059 11.4614 11.5305 14.0249 
208 1 0.155419 0.667066 12.102 10.9945 13.8079 
172 1 0.142884 0.648627 7.9429 12.3022 13.7928 
252 1 0.85746 1.17871 11.0873 12.6484 14.3148 
329 1 0.275937 0.807738 16.3565 11.8664 14.275 
144 1 0.615753 1.05553 12.8571 13.1457 13.9962 
361 1 0.149314 0.658214 3.41725 13.7142 13.8602 
163 1 0.563831 1.02498 9.86222 14.3962 14.3574 
115 1 0.133283 0.63376 12.9943 15.2151 14.2622 
357 1 0.563013 1.02449 14.1224 14.6054 13.9442 
91 1 0.487202 0.976271 7.31003 15.6432 14.1113 
215 1 0.645617 1.07232 9.85472 16.2946 13.7522 
310 1 0.839474 1.17041 12.5441 16.6208 14.3051 
146 1 0.115153 0.603613 9.13416 17.748 14.3656 
274 1 0.44292 0.945748 5.69474 3.57719 14.5508 
90 1 0.373193 0.893261 13.5991 3.2655 15.045 
242 1 0.617939 1.05677 14.5396 3.63632 15.3812 
315 1 0.523744 1.00009 10.4994 3.96717 15.2181 
385 1 0.599415 1.04611 12.3139 4.30181 15.1486 
20 1 0.431005 0.93719 6.18608 5.37073 14.7607 
384 1 0.308207 0.838072 14.4208 6.20676 15.0218 
185 1 0.117819 0.608235 15.7678 5.71692 14.8051 
293 1 0.169961 0.687254 3.86238 6.94538 15.2693 
152 1 0.494451 0.981088 4.84958 6.94689 15.3172 
397 1 0.8749 1.18664 15.4556 6.7672 14.6781 
341 1 0.62875 1.0629 2.52013 7.8928 15.065 
351 1 0.657136 1.07866 4.02428 8.07968 14.9138 
292 1 0.169304 0.686367 6.45086 7.6871 15.1801 
264 1 0.395481 0.910701 9.27161 7.95019 15.1737 
332 1 0.388197 0.905075 12.6007 7.56299 14.6846 
257 1 0.138284 0.64159 2.36215 8.73217 15.3109 
431 1 0.448538 0.94973 6.27386 8.71797 14.8017 
426 1 0.405163 0.918073 15.9688 8.46021 15.2233 
69 1 0.545626 1.01383 8.22355 9.14829 15.031 
103 1 0.488697 0.977268 17.5654 9.40163 14.7345 
96 1 0.664475 1.08266 5.14015 10.4244 15.1001 
213 1 0.617544 1.05655 13.2358 10.2007 15.1201 
193 1 0.649004 1.07419 15.5748 10.2997 15.0338 
178 1 0.507067 0.989363 2.54986 11.5456 15.3436 
400 1 0.338714 0.864858 3.80647 11.2866 15.0328 
421 1 0.549936 1.01649 12.6085 11.7073 14.6266 
189 1 0.15822 0.671049 13.7014 11.3025 15.2005 
411 1 0.15595 0.667824 15.8158 12.2141 15.1473 
76 1 0.265568 0.797491 2.8641 12.8971 14.5578 
32 1 0.698079 1.10061 6.6511 12.9749 14.7787 
226 1 0.376744 0.896085 12.4411 13.0654 15.4242 
323 1 0.295972 0.826832 9.30148 13.9244 15.1083 
231 1 0.171688 0.689574 11.4473 14.2495 14.7494 
111 1 0.307469 0.837402 13.3779 13.7128 15.3377 
221 1 0.227202 0.757073 12.8248 14.4624 15.2374 
154 1 0.756015 1.13026 8.23151 14.947 15.3539 
223 1 0.333983 0.860812 14.6013 15.2243 14.5858 
438 1 0.246278 0.777694 4.28747 15.5251 14.599 
326 1 0.173151 0.691527 12.9991 15.9465 15.3219 
325 1 0.215853 0.744252 13.7512 17.0283 15.2497 
82 1 0.372917 0.893041 10.8582 17.706 14.9275 
381 1 0.227521 0.757427 11.8873 17.6631 14.7012 
297 1 0.183697 0.70529 7.67961 3.2634 16.0563 
42 1 0.184925 0.706859 6.58775 4.32235 16.1279 
391 1 0.272066 0.803943 4.34109 4.70994 16.274 
291 1 0.217114 0.745698 6.11559 4.7249 15.5302 
388 1 0.695653 1.09934 12.6348 5.42232 15.7788 
417 1 0.125113 0.620538 14.8891 4.7473 15.6277 
109 1 0.544881 1.01337 8.7241 5.9509 16.0504 
368 1 0.641213 1.06988 10.0188 5.63503 15.632 
43 1 0.279267 0.810974 13.6525 5.81359 15.6714 
14 1 0.321311 0.849785 16.1391 6.169 16.0585 
309 1 0.326816 0.854611 3.11504 6.56101 15.5968 
320 1 0.226563 0.756362 13.0642 6.65286 16.2988 
380 1 0.487898 0.976735 4.26413 7.31401 16.2553 
200 1 0.230815 0.761065 7.27718 7.51561 16.0105 
350 1 0.493963 0.980766 8.33676 7.95166 15.5136 
165 1 0.671864 1.08666 5.20953 8.58832 15.4569 
83 1 0.533425 1.00622 14.9674 8.50974 16.2562 
142 1 0.599339 1.04606 6.89366 9.80078 15.9156 
5 1 0.254124 0.785867 9.2146 9.83417 16.1963 
239 1 0.418021 0.927683 17.3388 9.98807 15.9341 
273 1 0.453611 0.953297 9.69921 10.5896 16.0599 
64 1 0.520151 0.9978 5.84182 11.5363 15.7456 
120 1 0.151348 0.661189 7.52395 11.0548 15.4648 
217 1 0.733187 1.11876 9.45747 11.7291 16.0381 
232 1 0.294857 0.825793 10.5503 11.1012 16.2687 
145 1 0.651656 1.07566 16.5659 11.476 15.5241 
28 1 0.195473 0.720051 15.0495 12.317 15.6483 
347 1 0.258366 0.790216 7.33367 13.0445 16.126 
123 1 0.470412 0.964924 9.59938 12.8157 15.8198 
136 1 0.472853 0.966591 15.0276 13.457 16.1961 
180 1 0.54047 1.01063 7.76211 13.7211 15.58 
116 1 0.84094 1.17109 11.4006 14.5511 16.1674 
404 1 0.511916 0.992507 4.73873 15.8543 16.1852 
59 1 0.360186 0.88276 11.2255 15.7675 15.7684 
290 1 0.171724 0.689621 8.86372 16.5656 15.4798 
375 1 0.512908 0.993147 11.5626 17.243 16.3209 
85 1 0.232538 0.762955 12.1043 16.3859 15.8096 
126 1 0.509939 0.991227 10.2803 17.4466 16.1272 
121 1 0.564807 1.02557 9.66063 2.28978 17.0607 
286 1 0.615979 1.05566 11.5808 2.66415 17.2596 
247 1 0.80774 1.15547 12.7994 2.70873 17.2377 
392 1 0.549647 1.01632 10.2414 3.13279 16.7219 
365 1 0.467453 0.962897 7.53403 4.4034 16.4202 
10 1 0.8393 1.17032 12.3948 4.13698 16.9021 
410 1 0.634858 1.06633 15.3213 4.33048 16.529 
179 1 0.153839 0.664798 3.48435 5.43232 16.6593 
60 1 0.224864 0.754467 5.63295 5.07133 16.7512 
328 1 0.718415 1.1112 11.1354 4.95258 16.9987 
395 1 0.775607 1.13994 14.0923 4.7735 16.5109 
234 1 0.133163 0.63357 7.2114 5.93702 17.1003 
196 1 0.153976 0.664995 11.8399 5.60851 16.3932 
104 1 0.326101 0.853986 3.7329 6.83831 17.1721 
427 1 0.301348 0.831809 5.2875 7.052 16.7851 
355 1 0.149661 0.658724 6.2195 7.069 16.3666 
174 1 0.585884 1.03818 2.64864 7.63061 16.4053 
56 1 0.498645 0.983855 8.59853 7.54213 17.0169 
148 1 0.571469 1.02959 9.55145 7.29733 16.5257 
94 1 0.814386 1.15863 11.6382 7.35683 16.4695 
394 1 0.336744 0.863178 13.1976 7.98038 17.0487 
27 1 0.320331 0.84892 13.9944 8.02043 16.4202 
133 1 0.601394 1.04726 15.7955 7.50423 16.7738 
92 1 0.229234 0.759324 16.8836 7.27496 16.6956 
183 1 0.27711 0.808881 17.5329 8.01727 16.4589 
141 1 0.293766 0.824773 6.30909 8.84967 16.4843 
84 1 0.223441 0.752872 7.39815 8.73058 16.967 
101 1 0.554686 1.01941 9.1422 8.91915 17.0068 
416 1 0.231541 0.761862 11.2299 8.42164 16.4443 
77 1 0.183517 0.70506 16.5515 8.77674 16.8271 
132 1 0.148182 0.656547 17.2112 8.95606 16.9158 
130 1 0.734106 1.11923 10.8682 9.79722 16.5002 
8 1 0.273695 0.805545 12.3647 9.31971 16.6518 
127 1 0.758875 1.13168 13.5175 9.17329 16.6035 
366 1 0.370644 0.891222 14.5838 9.58827 16.9556 
269 1 0.4132 0.924103 2.92961 10.0291 17.2129 
46 1 0.223311 0.752726 3.85781 10.1952 16.5312 
359 1 0.379068 0.897924 12.1705 10.3547 16.6231 
418 1 0.329501 0.856944 13.371 10.1903 16.8347 
194 1 0.569654 1.0285 14.8618 10.8339 16.7123 
100 1 0.255633 0.787419 16.8457 10.0054 16.9952 
159 1 0.484954 0.974767 5.60955 11.6337 17.2183 
197 1 0.890231 1.19353 6.72999 10.9238 16.7187 
386 1 0.348949 0.873483 10.0477 11.4995 17.2655 
9 1 0.297895 0.828619 4.72425 12.4559 16.948 
272 1 0.596178 1.04422 10.8265 12.5872 16.8207 
15 1 0.435522 0.940453 12.6428 12.3506 17.0588 
205 1 0.40532 0.918191 17.0734 12.4844 16.5781 
214 1 0.538694 1.00952 3.64853 12.8809 16.8097 
289 1 0.182349 0.70356 16.3604 13.3333 16.9318 
229 1 0.230066 0.760241 15.5141 12.9852 16.9816 
337 1 0.633282 1.06545 4.07985 14.0157 16.5864 
75 1 0.547739 1.01514 6.52262 13.668 17.075 
383 1 0.193457 0.717566 7.36989 13.7303 16.7056 
227 1 0.578323 1.03369 9.20916 14.3058 16.6352 
11 1 0.382234 0.900417 10.2611 13.9994 16.4564 
374 1 0.12506 0.62045 13.2132 13.9521 17.2592 
38 1 0.313712 0.843032 13.9053 13.8995 16.5025 
1 1 0.283942 0.815475 14.803 14.3711 16.379 
62 1 0.696446 1.09976 15.7579 14.5062 16.9127 
68 1 0.380643 0.899166 4.22556 15.0649 16.5889 
26 1 0.783117 1.1436 6.49604 15.0034 17.0397 
158 1 0.307559 0.837484 12.2003 14.8048 17.1164 
301 1 0.157879 0.670567 13.1761 15.1638 16.6445 
37 1 0.160198 0.673834 5.39465 15.8259 16.9779 
270 1 0.846731 1.17377 7.41476 15.8075 17.2029 
97 1 0.233755 0.764283 9.07596 15.6766 16.7564 
430 1 0.565587 1.02605 15.4105 15.5604 16.5788 
339 1 0.387304 0.90438 6.53517 16.6064 16.4589 
440 1 0.239187 0.770158 9.37971 16.7131 16.3678 
398 1 0.227879 0.757824 12.4765 16.6089 17.1752 
160 1 0.563316 1.02467 13.953 16.7111 17.2048 
17 1 0.301388 0.831845 7.68047 17.6157 17.1916 
268 1 0.475557 0.96843 7.28356 2.86885 17.4178 
240 1 0.760542 1.13251 8.99907 3.31225 17.8805 
33 1 0.177265 0.696961 5.96797 3.69847 17.4862 
25 1 0.15138 0.661236 7.25126 3.88287 17.8324 
23 1 0.158987 0.672132 7.98523 3.78192 17.293 
173 1 0.793199 1.14849 8.63929 4.46552 17.6335 
444 1 0.113453 0.600629 11.7437 3.66595 17.7949 
389 1 0.371064 0.891559 4.84471 5.04425 17.442 
243 1 0.638675 1.06847 6.52117 5.38558 17.6791 
222 1 0.299137 0.829769 9.59322 5.21609 17.3386 
112 1 0.130887 0.62994 10.3443 4.76152 17.7012 
233 1 0.427634 0.934741 12.3568 5.42999 17.4897 
275 1 0.145004 0.65182 16.0638 4.97693 17.4228 
276 1 0.407006 0.919463 5.1713 6.0672 17.3589 
308 1 0.177814 0.697679 10.5967 5.94928 17.5255 
327 1 0.360688 0.88317 11.5153 6.18673 17.5161 
198 1 0.518349 0.996647 13.7258 5.82248 17.5097 
36 1 0.74679 1.12564 15.567 6.04496 17.2829 
330 1 0.61034 1.05242 16.697 5.7524 17.8844 
106 1 0.842024 1.17159 6.0167 6.68268 17.8301 
63 1 0.135782 0.637697 7.82453 6.95687 17.6834 
303 1 0.374209 0.894071 9.1392 6.60612 17.6429 
129 1 0.15612 0.668067 12.5226 6.83619 17.4481 
322 1 0.212716 0.740628 14.9225 6.75988 17.5326 
423 1 0.129738 0.628092 16.559 6.63577 17.7304 
6 1 0.134169 0.635162 4.04427 8.04292 17.8711 
346 1 0.247221 0.778685 6.38045 8.14246 17.7783 
186 1 0.420118 0.929232 7.56184 7.88045 17.3613 
78 1 0.465128 0.961298 10.8043 7.40138 17.4817 
422 1 0.173107 0.691467 12.0238 8.06366 17.646 
161 1 0.555424 1.01986 16.4953 8.04193 17.8796 
182 1 0.783823 1.14395 3.19893 8.44186 17.6672 
210 1 0.793151 1.14847 5.37612 8.51337 17.5058 
283 1 0.172794 0.691051 9.89045 8.74589 17.8028 
362 1 0.351534 0.875634 10.811 8.83465 17.4068 
284 1 0.43007 0.936513 6.83365 9.23048 17.6153 
379 1 0.157723 0.670346 8.01697 9.24842 17.3625 
71 1 0.126924 0.623517 9.80672 9.6248 17.43 
363 1 0.209526 0.736907 12.2324 9.85948 17.7776 
89 1 0.27679 0.80857 15.4939 9.53339 17.8487 
348 1 0.151854 0.661926 2.29469 10.8775 17.4806 
30 1 0.35413 0.877785 5.33817 10.6342 17.4143 
434 1 0.161954 0.676286 6.70519 10.1646 17.718 
250 1 0.343318 0.868759 8.07511 10.3269 17.4428 
340 1 0.660494 1.0805 9.30602 10.305 17.8762 
413 1 0.300686 0.831199 10.6188 10.4724 17.8195 
169 1 0.301683 0.832117 3.06585 11.8051 17.8559 
307 1 0.33974 0.86573 3.89976 11.3188 17.682 
58 1 0.263589 0.795505 8.84914 11.4202 17.5704 
55 1 0.295216 0.826127 10.9873 11.3609 17.5627 
118 1 0.588388 1.03965 12.5209 11.1854 17.4214 
314 1 0.560233 1.0228 13.6671 11.3346 17.3792 
3 1 0.113438 0.600601 15.4635 11.4056 17.7563 
390 1 0.839803 1.17056 17.5693 10.9935 17.6927 
321 1 0.286053 0.81749 6.18555 12.4948 17.5844 
113 1 0.492424 0.979746 7.14225 11.8429 17.6912 
70 1 0.200817 0.726553 8.56168 12.1765 17.7671 
296 1 0.59222 1.04191 14.6325 11.8612 17.8432 
199 1 0.186797 0.709236 16.0405 12.4273 17.6828 
377 1 0.13913 0.642896 2.96691 12.8563 17.6665 
369 1 0.58491 1.0376 5.06132 13.5307 17.8272 
300 1 0.647644 1.07344 7.57451 12.8263 17.6793 
2 1 0.359785 0.882433 8.58268 13.0742 17.3956 
13 1 0.219501 0.748421 10.2553 13.2187 17.5667 
429 1 0.818625 1.16063 11.3549 13.4757 17.4596 
187 1 0.390333 0.906732 12.5039 13.3883 17.8162 
338 1 0.399664 0.9139 14.1489 12.9179 17.6965 
277 1 0.136038 0.638098 14.8686 13.2178 17.4014 
184 1 0.136174 0.638311 8.22099 14.1919 17.4441 
294 1 0.524883 1.00082 10.8961 14.5095 17.8013 
266 1 0.127178 0.623933 16.8193 13.8368 17.3403 
259 1 0.843637 1.17234 5.10329 14.9342 17.4494 
47 1 0.591964 1.04176 8.51139 14.9767 17.7056 
7 1 0.486108 0.975539 9.54049 15.0436 17.8384 
22 1 0.228581 0.758601 13.0752 14.6191 17.4553 
246 1 0.763156 1.1338 14.1205 14.9131 17.6518 
409 1 0.134322 0.635403 4.45122 15.7124 17.629 
336 1 0.21822 0.746962 9.66717 16.0872 17.4748 
155 1 0.436671 0.94128 10.4897 15.6167 17.5604 
382 1 0.462854 0.959729 11.9443 15.8777 17.7514 
267 1 0.142168 0.647541 13.3333 16.0992 17.4702 
195 1 0.191207 0.714773 6.58657 16.4786 17.8043 
405 1 0.663479 1.08212 8.5991 17.0395 17.5789 
220 1 0.247472 0.778949 9.61773 17.1836 17.6528 
241 1 0.303036 0.833359 10.4402 16.9064 17.8278 
35 1 0.179386 0.699729 11.2284 16.4385 17.4312 
424 1 0.719382 1.1117 11.0781 17.7915 17.6417 
ITEM: TIMESTEP
20000
ITEM: NUMBER OF ATOMS
444
ITEM: BOX BOUNDS pp pp ff
0.0000000000000000e+00 2.0000000000000000e+01
0.0000000000000000e+00 2.0000000000000000e+01
0.0000000000000000e+00 2.0000000000000000e+01
ITEM: ATOMS id type mass diameter x y z 
396 1 0.848267 1.17448 12.6756 3.31705 6.0358 
216 1 0.664445 1.08265 13.7553 5.47208 6.03714 
306 1 0.611889 1.05331 3.54253 7.25502 5.90295 
41 1 0.196037 0.720742 5.07424 6.72502 6.07623 
72 1 0.664987 1.08294 13.8506 6.61424 5.7926 
412 1 0.684596 1.09348 6.29292 9.14506 5.79846 
65 1 0.81414 1.15851 15.1455 9.59108 5.8758 
317 1 0.257168 0.788992 14.2088 11.6844 6.0912 
244 1 0.726047 1.11512 8.35605 12.0719 6.18562 
228 1 0.337355 0.8637 16.7735 12.4868 6.07363 
280 1 0.162249 0.676698 8.94074 15.0734 5.79575 
230 1 0.373356 0.893391 7.83463 16.581 6.12002 
364 1 0.125437 0.621072 10.0129 2.67691 7.03939 
265 1 0.268557 0.800472 6.57732 5.0972 6.80042 
128 1 0.321318 0.849791 12.9185 5.66659 6.82509 
209 1 0.622285 1.05925 6.01766 6.8472 7.00847 
177 1 0.135927 0.637924 7.02676 6.71975 6.94444 
190 1 0.399653 0.913892 12.0866 6.73291 7.00874 
207 1 0.284287 0.815805 2.92952 8.41992 6.60127 
419 1 0.114537 0.602536 2.56212 9.61117 7.26005 
425 1 0.326613 0.854434 8.16643 9.12476 6.4198 
442 1 0.38206 0.90028 11.7269 9.23783 6.36697 
282 1 0.886771 1.19199 9.12612 10.7265 7.2159 
52 1 0.276232 0.808026 4.35865 11.8202 6.79815 
342 1 0.396565 0.911532 10.558 12.1123 6.5647 
18 1 0.675727 1.08874 8.90836 14.8478 6.97491 
333 1 0.539469 1.01 15.8102 14.8425 6.75831 
168 1 0.290697 0.82189 13.0258 16.2015 6.74173 
248 1 0.356349 0.879614 9.36636 16.3852 7.05784 
34 1 0.355441 0.878866 10.1508 16.7724 6.63635 
299 1 0.470785 0.965179 9.02289 3.70668 7.71119 
164 1 0.185361 0.707414 12.6405 4.10448 7.4181 
288 1 0.84937 1.17499 9.84454 5.21778 8.12545 
370 1 0.830105 1.16603 11.2164 6.2457 7.46102 
285 1 0.552445 1.01804 16.4456 5.67721 8.08019 
271 1 0.492355 0.9797 10.4273 7.1667 7.60401 
74 1 0.221253 0.750407 4.41554 8.03694 7.31155 
253 1 0.375191 0.894852 14.715 7.81647 7.69512 
167 1 0.719711 1.11187 6.39286 8.82853 7.4086 
99 1 0.316576 0.84559 8.04837 9.01856 7.57493 
66 1 0.351615 0.875702 12.4674 8.39505 7.79646 
319 1 0.80167 1.15257 4.83543 9.14097 7.84429 
352 1 0.471682 0.965792 9.16033 9.60246 7.78447 
443 1 0.159955 0.673493 12.3791 11.6994 7.65875 
354 1 0.357629 0.880666 14.3078 11.465 7.52155 
402 1 0.169856 0.687112 4.36059 12.483 7.814 
24 1 0.374144 0.894019 8.11808 12.6426 8.03478 
343 1 0.344226 0.869525 8.61497 11.8791 7.51721 
81 1 0.367474 0.888674 5.9676 13.502 7.53025 
441 1 0.189726 0.712923 4.62444 14.8882 7.71596 
191 1 0.269494 0.801401 11.2741 15.4211 7.46387 
48 1 0.473578 0.967084 12.3155 15.1678 8.05164 
236 1 0.364085 0.885934 9.96999 17.5918 7.74477 
110 1 0.5823 1.03605 11.8397 17.6615 8.08652 
108 1 0.139982 0.644206 6.35348 2.89613 8.93307 
203 1 0.464065 0.960565 7.90142 3.17771 8.45409 
224 1 0.138088 0.641286 10.0367 3.39228 8.4484 
143 1 0.647173 1.07318 6.26406 4.0424 8.42163 
157 1 0.531405 1.00494 4.8647 5.02089 9.08988 
387 1 0.384109 0.901887 15.306 4.59153 8.94783 
372 1 0.66275 1.08173 4.46682 5.87409 8.36633 
316 1 0.338682 0.864831 13.3213 6.84187 8.71143 
287 1 0.793698 1.14873 16.6237 6.94213 8.36308 
67 1 0.257794 0.789632 5.37513 7.78523 8.5705 
45 1 0.351508 0.875613 7.96737 7.52947 8.29342 
437 1 0.233319 0.763807 10.0684 7.61945 8.88314 
131 1 0.756203 1.13035 2.15843 8.76724 8.53267 
406 1 0.341537 0.867254 5.79408 9.03253 9.04283 
435 1 0.284938 0.816427 9.80384 9.17582 8.4429 
206 1 0.329204 0.856687 13.8098 9.25533 8.66626 
40 1 0.62382 1.06012 11.9649 10.8339 8.70494 
401 1 0.150837 0.660445 4.48332 11.097 8.36706 
61 1 0.473194 0.966822 6.94041 11.3962 8.83598 
295 1 0.578689 1.03391 7.93617 11.1513 8.42274 
119 1 0.47341 0.96697 9.11004 12.4598 8.55882 
98 1 0.12526 0.620781 3.72566 13.1221 8.56665 
117 1 0.275027 0.806849 4.89279 13.1551 8.64062 
298 1 0.667781 1.08446 8.60936 13.5755 9.06159 
225 1 0.194147 0.718418 3.49819 14.1041 8.3471 
188 1 0.451774 0.952008 7.45081 13.8209 8.29853 
176 1 0.297417 0.828175 9.84601 13.9574 8.69302 
181 1 0.211593 0.739324 12.9773 17.0691 8.20959 
403 1 0.540608 1.01071 10.7726 3.78354 9.88891 
88 1 0.235394 0.766065 14.0732 3.75699 9.21641 
16 1 0.722694 1.1134 5.93852 4.78468 9.89545 
86 1 0.194168 0.718444 6.34983 5.60564 9.96779 
171 1 0.611222 1.05293 7.90537 5.48146 9.35009 
134 1 0.824885 1.16359 9.81602 5.93142 9.51541 
414 1 0.882697 1.19016 11.7371 6.08025 9.14875 
19 1 0.557392 1.02107 14.2828 6.22485 9.32141 
212 1 0.184278 0.706033 15.4394 6.22811 9.83082 
102 1 0.6559 1.07799 4.8648 6.61947 9.94048 
318 1 0.375729 0.89528 15.7708 7.68084 9.58434 
87 1 0.120162 0.612242 16.8599 7.83273 9.61796 
261 1 0.769507 1.13694 11.9696 8.4374 9.18685 
49 1 0.375897 0.895413 3.51791 9.49516 9.45299 
12 1 0.134519 0.635714 8.3578 9.53412 9.61403 
432 1 0.321357 0.849825 2.38796 10.4081 9.40577 
166 1 0.644419 1.07166 17.1656 10.2144 9.13191 
150 1 0.489703 0.977938 12.9027 11.0343 9.63977 
219 1 0.434408 0.93965 15.0589 11.4793 9.81408 
124 1 0.382004 0.900236 3.85315 11.8399 9.60482 
393 1 0.777108 1.14067 13.3492 12.1359 9.1308 
105 1 0.475747 0.968558 16.9306 12.5426 9.55588 
153 1 0.307911 0.837804 6.40932 13.3966 9.12228 
107 1 0.163027 0.677777 12.7552 13.4082 9.30908 
135 1 0.619494 1.05766 15.0743 13.5196 9.78401 
376 1 0.800105 1.15182 6.16473 14.6195 9.55265 
254 1 0.164566 0.679904 5.75257 15.4475 9.61688 
53 1 0.291042 0.822216 15.9807 15.0639 9.98859 
175 1 0.648901 1.07414 8.27923 17.0146 9.26173 
353 1 0.540086 1.01039 12.3337 17.0075 9.8534 
311 1 0.284898 0.816389 8.60975 4.02139 10.7869 
279 1 0.850616 1.17556 8.61267 5.08972 10.5788 
335 1 0.783068 1.14358 11.758 4.9489 10.474 
371 1 0.588561 1.03975 14.5549 4.6047 10.8452 
249 1 0.240854 0.771943 8.64995 7.76852 10.0685 
95 1 0.808693 1.15592 6.58042 9.0544 10.4573 
313 1 0.603401 1.04842 13.4318 8.94916 10.3657 
262 1 0.27204 0.803917 7.3906 9.85174 10.0741 
140 1 0.261037 0.792929 16.2326 10.0145 10.3968 
358 1 0.145374 0.652372 17.8187 10.6026 10.7165 
324 1 0.888981 1.19298 11.3576 11.4936 10.7166 
360 1 0.803867 1.15362 16.0376 11.7434 10.4758 
162 1 0.251525 0.783179 4.3825 12.6263 10.9085 
302 1 0.184928 0.706863 8.37417 12.6117 10.4006 
255 1 0.480791 0.971969 9.61836 11.8423 10.8489 
278 1 0.216198 0.744648 8.51131 13.5947 10.3987 
201 1 0.84364 1.17234 4.20363 14.354 10.809 
235 1 0.172442 0.690581 7.41083 13.7729 10.2618 
439 1 0.352505 0.87644 16.5756 14.3155 10.9003 
21 1 0.381265 0.899655 12.186 14.6197 10.5168 
122 1 0.263156 0.795069 5.52888 15.8813 10.456 
428 1 0.281163 0.812805 9.05597 15.7379 10.24 
251 1 0.155493 0.667171 11.1866 17.2694 10.0193 
139 1 0.78689 1.14544 12.3596 3.94417 11.2445 
202 1 0.160577 0.674365 15.6192 4.34841 11.4121 
399 1 0.67272 1.08712 4.00412 5.25687 11.5285 
260 1 0.599621 1.04623 13.206 4.82009 11.017 
345 1 0.652317 1.07602 3.38446 6.57444 11.7467 
356 1 0.729739 1.11701 6.17093 6.84105 10.917 
204 1 0.298183 0.828886 9.46388 7.40584 11.2467 
305 1 0.211179 0.73884 4.24232 8.67741 11.0291 
114 1 0.124014 0.618714 5.54085 9.022 11.3602 
156 1 0.196543 0.721361 10.4292 8.31319 11.0752 
218 1 0.292385 0.823478 2.05093 9.92693 11.2546 
138 1 0.766499 1.13546 3.0505 9.6975 11.1796 
304 1 0.859689 1.17973 3.2105 10.8842 11.1901 
436 1 0.310948 0.840549 5.02875 10.1457 11.121 
378 1 0.598905 1.04581 16.4364 10.6633 11.3769 
51 1 0.188276 0.711103 4.81179 11.7127 11.3062 
420 1 0.113742 0.601137 9.18041 11.1521 11.6391 
258 1 0.15084 0.660449 16.0843 12.0668 11.6433 
93 1 0.566765 1.02676 5.19552 13.1765 10.9422 
415 1 0.142006 0.647295 10.3734 13.9487 11.6017 
4 1 0.60105 1.04706 15.4056 14.5466 11.7795 
44 1 0.213894 0.741994 9.69951 15.664 11.3548 
50 1 0.510776 0.991769 11.913 17.4461 11.7249 
331 1 0.122287 0.615829 8.54776 2.19352 11.9609 
433 1 0.361779 0.884059 11.0258 2.19337 12.6041 
238 1 0.791374 1.14761 8.06618 4.31595 12.6661 
408 1 0.798168 1.15088 5.14174 5.21472 12.5009 
367 1 0.194852 0.719286 8.48991 5.85304 11.826 
73 1 0.806914 1.15507 10.5528 5.53114 12.0426 
407 1 0.370002 0.890707 16.4199 5.46052 11.8508 
79 1 0.247084 0.778542 6.17091 6.45486 12.6113 
31 1 0.791556 1.1477 11.0927 7.05738 11.9709 