LAMMPS (22 Aug 2018)
Running on 24 partitions of processors
Step MaxReplicaForce MaxAtomForce GradV0 GradV1 GradVc EBF EBR RDT RD1 PE1 RD2 PE2 ... RDN PEN
0    5.4791689    1.4241355 0.00045688678    5.4791689    3.4615316   0.62832329    1.0065312    2.0604654            0    -2211.666  0.043478261     -2211.65  0.086956522   -2211.6014   0.13043478   -2211.5196   0.17391304   -2211.4061    0.2173913   -2211.2747   0.26086957    -2211.155   0.30434783   -2211.0724   0.34782609   -2211.0377   0.39130435   -2211.0495   0.43478261   -2211.0995   0.47826087   -2211.1774   0.52173913   -2211.2736   0.56521739   -2211.3809   0.60869565   -2211.4941   0.65217391   -2211.6097   0.69565217   -2211.7246   0.73913043   -2211.8356    0.7826087   -2211.9382   0.82608696   -2212.0261   0.86956522   -2212.0913   0.91304348   -2212.1237   0.95652174   -2212.1121            1   -2212.0442 
10    1.3382736   0.26853826 8.3001421e-05   0.35916215     0.296281   0.22967508    1.8683189    2.5483637            0    -2211.666  0.036683111   -2211.6577  0.072578616   -2211.6332   0.10716195   -2211.5933   0.14082142   -2211.5366   0.17827487   -2211.4647   0.21843921   -2211.4363   0.26288331   -2211.5246   0.31252703   -2211.7493   0.35750464   -2212.0149   0.40752039   -2212.2952   0.44783815   -2212.5089   0.50581096   -2212.7588   0.58129596    -2212.765   0.63813897   -2212.7438   0.68370024   -2212.7683    0.7255853   -2212.8225   0.76608608   -2212.8966    0.8060341   -2212.9833   0.84578507   -2213.0751   0.88553646   -2213.1632   0.92499316   -2213.2365   0.96207857   -2213.2838            1   -2213.3046 
20    1.3109887   0.30812128 6.0315324e-05   0.23961486   0.25627211   0.22277322    1.8779231    2.7055766            0    -2211.666  0.034266085   -2211.6588  0.067374263   -2211.6373   0.10017402   -2211.5997   0.13322796   -2211.5424   0.16897377   -2211.4706    0.2072076   -2211.4432   0.24980836   -2211.5376   0.29956884   -2211.7924   0.35068204    -2212.113   0.39625822   -2212.3907   0.43978687    -2212.645   0.48671603    -2212.881     0.593872   -2212.8265   0.65101295   -2212.7794   0.69473206   -2212.7958   0.73458339    -2212.846   0.77298538   -2212.9182   0.81083536   -2213.0039    0.8485329   -2213.0948   0.88621406   -2213.1817   0.92350573   -2213.2535   0.95972427   -2213.3006            1   -2213.3211 
30    1.2832729   0.38290209 4.5366266e-05   0.17155181   0.25340204   0.21941006    1.8819661     2.993024            0    -2211.666  0.030724786   -2211.6595  0.060691629   -2211.6393  0.090865277   -2211.6022   0.12156701   -2211.5444   0.15418464   -2211.4727   0.18906751   -2211.4466   0.22802318   -2211.5451   0.27291208   -2211.8039   0.32348034   -2212.1689   0.37530856   -2212.5306   0.41952231   -2212.8017    0.4876021   -2213.0962   0.62060803   -2212.8642   0.67875092   -2212.7986   0.71961063     -2212.81   0.75590405   -2212.8577   0.79062014   -2212.9287   0.82485196   -2213.0137   0.85902294   -2213.1042   0.89321403   -2213.1906   0.92717279   -2213.2618   0.96116912   -2213.3091            1   -2213.3286 
40    0.7579206    0.1478747 3.4132192e-05   0.12442528   0.26732212   0.21704815    1.8835954    3.1838161            0    -2211.666  0.028750153     -2211.66  0.057187092   -2211.6404  0.085999392   -2211.6035   0.11542014   -2211.5452   0.14637395   -2211.4736   0.17949649   -2211.4489   0.21648651   -2211.5515   0.25870521   -2211.8135   0.30656269   -2212.1859   0.35819418   -2212.5845   0.40808703   -2212.9211   0.49415288   -2213.2329   0.62864938   -2212.9023   0.69220941   -2212.8117   0.73299499   -2212.8189   0.76760853    -2212.865   0.80020755    -2212.935    0.8322791   -2213.0195    0.8643678   -2213.1097   0.89656223   -2213.1958   0.92879416    -2213.267   0.96192939   -2213.3144            1   -2213.3325 
50   0.52467527  0.083579802 2.4933347e-05  0.087932831   0.29677744   0.21445825    1.8833495    3.3031625            0    -2211.666  0.027698573   -2211.6604  0.055443419    -2211.641   0.08360176   -2211.6042   0.11238934   -2211.5456    0.1425426   -2211.4742   0.17485708   -2211.4515   0.21095739   -2211.5584   0.25179549   -2211.8238   0.29796821   -2212.1988   0.34963309   -2212.6193   0.40507553   -2212.9989   0.50045542   -2213.2774   0.62745998   -2212.9412   0.69660838   -2212.8226   0.73937157   -2212.8246   0.77368819   -2212.8699   0.80518833   -2212.9394    0.8359336   -2213.0235   0.86671371   -2213.1134   0.89772279   -2213.1993   0.92912421   -2213.2707   0.96216233   -2213.3182            1   -2213.3349 
60    0.7952593  0.081281036 1.4822219e-05  0.049758994   0.38053673   0.20645067    1.8770045    3.4128643            0    -2211.666  0.026985632   -2211.6607  0.054278907   -2211.6416  0.081933457   -2211.6049   0.11021186   -2211.5463   0.13996554   -2211.4762    0.1720784   -2211.4595    0.2083932   -2211.5742   0.24881026   -2211.8446   0.29399619   -2212.2215   0.34562598   -2212.6533   0.40912483   -2213.0762   0.50875753   -2213.2909   0.62131002   -2212.9933   0.69546229   -2212.8371   0.74268495   -2212.8283   0.77821457   -2212.8732   0.80928622   -2212.9432    0.8389292   -2213.0273   0.86843147   -2213.1169   0.89832327   -2213.2026   0.92914402   -2213.2745   0.96234706    -2213.322            1   -2213.3366 
70   0.29699794   0.11467124 9.7608824e-06  0.031622068   0.45863377   0.19328451    1.8643232    3.4623321            0    -2211.666  0.026802941   -2211.6608  0.053870468   -2211.6419  0.081173208   -2211.6057   0.10913533    -2211.548    0.1389695   -2211.4809   0.17160815   -2211.4727   0.20978677   -2211.5978   0.25215207   -2211.8733   0.29891765   -2212.2563   0.35325163   -2212.7134   0.41995387   -2213.1285   0.51503566   -2213.2902   0.61678314   -2213.0241   0.69180623   -2212.8481   0.74227624   -2212.8285   0.77953058   -2212.8727   0.81102673   -2212.9439   0.84042042   -2213.0288   0.86940114   -2213.1186   0.89881227   -2213.2045   0.92943818   -2213.2768   0.96266649   -2213.3238            1    -2213.337 
80   0.94887509   0.13010104 4.7879108e-06  0.014863925   0.40554071   0.17315331    1.8444574    3.5430107            0    -2211.666  0.026375864    -2211.661  0.052649632    -2211.643  0.079084156   -2211.6084   0.10661891   -2211.5524   0.13735733   -2211.4928   0.17118633   -2211.5002   0.21308979   -2211.6435   0.26081701   -2211.9385   0.31464617   -2212.3294   0.37526025   -2212.7907   0.44365131    -2213.182   0.52872172   -2213.2877   0.61551018   -2213.0575   0.68794899   -2212.8659   0.74148691   -2212.8274   0.78143868   -2212.8686   0.81408175    -2212.942   0.84353243   -2213.0292   0.87204392   -2213.1204   0.90091498   -2213.2072   0.93118172     -2213.28   0.96394958   -2213.3259            1   -2213.3373 
90   0.73587548   0.13795707 2.5369525e-06 0.0079504067   0.20962692   0.15094519    1.8223074     3.640274            0    -2211.666  0.025477563   -2211.6614  0.050606696   -2211.6444  0.075858187    -2211.612   0.10295547    -2211.559   0.13542256   -2211.5151   0.17276314   -2211.5582   0.22539765   -2211.6955   0.27863905   -2211.9893   0.33648046   -2212.3762    0.4012255   -2212.8567   0.46731565   -2213.2171   0.54406741   -2213.2873   0.62108081   -2213.0749   0.68920054   -2212.8802   0.74297869   -2212.8269    0.7843399   -2212.8634   0.81787819   -2212.9383   0.84749233    -2213.028   0.87570789   -2213.1212   0.90410751   -2213.2093   0.93382313   -2213.2823   0.96570015    -2213.327            1   -2213.3374 
100   0.23643545  0.084716374 1.5662257e-06 0.0051927041   0.11256141   0.14276936    1.8141465    3.6992957            0    -2211.666  0.024648897   -2211.6617  0.048793259   -2211.6461  0.073516218    -2211.615    0.1008922   -2211.5618   0.13352082   -2211.5232   0.17413029   -2211.5879   0.23152748   -2211.7268   0.29257813   -2212.0134   0.35196672   -2212.4052    0.4144965   -2212.8858   0.47998354   -2213.2344   0.55279286   -2213.2878   0.62478603   -2213.0841    0.6899471   -2212.8899   0.74332082   -2212.8271   0.78543009   -2212.8592   0.81971336   -2212.9346   0.84969019   -2213.0265   0.87794317   -2213.1215   0.90619361   -2213.2107   0.93560566   -2213.2839   0.96687129   -2213.3277            1   -2213.3374 
Climbing replica = 6
Step MaxReplicaForce MaxAtomForce GradV0 GradV1 GradVc EBF EBR RDT RD1 PE1 RD2 PE2 ... RDN PEN
100   0.23643545  0.084716374 1.5662257e-06 0.0051927041   0.11256141   0.14276936    1.8141465    3.6992957            0    -2211.666  0.024648897   -2211.6617  0.048793259   -2211.6461  0.073516218    -2211.615    0.1008922   -2211.5618   0.13352082   -2211.5232   0.17413029   -2211.5879   0.23152748   -2211.7268   0.29257813   -2212.0134   0.35196672   -2212.4052    0.4144965   -2212.8858   0.47998354   -2213.2344   0.55279286   -2213.2878   0.62478603   -2213.0841    0.6899471   -2212.8899   0.74332082   -2212.8271   0.78543009   -2212.8592   0.81971336   -2212.9346   0.84969019   -2213.0265   0.87794317   -2213.1215   0.90619361   -2213.2107   0.93560566   -2213.2839   0.96687129   -2213.3277            1   -2213.3374 
110   0.16833786  0.059267171 8.7828457e-07 0.0033322644  0.062691133   0.13973715    1.8111218    3.7574485            0    -2211.666  0.023640571   -2211.6621  0.047318365   -2211.6474  0.072299604   -2211.6159  0.099759589   -2211.5617   0.12963614   -2211.5263   0.17614689   -2211.6079   0.23410703   -2211.7505   0.30171907   -2212.0134   0.36265305   -2212.4216   0.42381623   -2212.9093      0.48888   -2213.2474   0.56010195   -2213.2894   0.62838059   -2213.0932    0.6906766   -2212.9001   0.74329396   -2212.8281   0.78596304   -2212.8544   0.82106214   -2212.9297   0.85159041    -2213.024   0.88006332   -2213.1214   0.90827954    -2213.212   0.93741292   -2213.2853   0.96803188   -2213.3282            1   -2213.3374 
120   0.23145497  0.036976178 4.3878319e-07 0.0021423002  0.037226009   0.13852376    1.8099121    3.8270725            0    -2211.666  0.022878395   -2211.6624  0.046612083   -2211.6478  0.071777446   -2211.6153  0.098760471    -2211.561   0.12716013   -2211.5275   0.17763627   -2211.6238   0.23664626   -2211.7693   0.30780093   -2211.9956   0.37031893   -2212.4266   0.43180242   -2212.9324   0.49669006   -2213.2592   0.56705581   -2213.2932   0.63265342   -2213.1034   0.69230598    -2212.911   0.74379083     -2212.83   0.78665063   -2212.8493    0.8224418   -2212.9237   0.85357337   -2213.0205   0.88235316   -2213.1208   0.91056228   -2213.2132   0.93935449   -2213.2867   0.96922187   -2213.3287            1   -2213.3374 
130   0.11582355   0.02366355 2.6700782e-07 0.0016297708  0.027307245   0.13815151    1.8095411    3.8705929            0    -2211.666  0.022737686   -2211.6625  0.046551663   -2211.6476  0.071703244   -2211.6146  0.098318685   -2211.5605   0.12597828   -2211.5278   0.17865385    -2211.633   0.23864551   -2211.7776   0.31002658   -2211.9799   0.37355834   -2212.4258   0.43564211   -2212.9454   0.50071345   -2213.2658   0.57053597   -2213.2967   0.63490498   -2213.1109   0.69320399   -2212.9183   0.74396821   -2212.8317   0.78683773    -2212.846   0.82302139   -2212.9192    0.8545769   -2213.0176   0.88362679   -2213.1201   0.91188961   -2213.2137   0.94049164   -2213.2874   0.96990544    -2213.329            1   -2213.3374 
140   0.10245091  0.016656078 1.5161296e-07 0.0012244996   0.01989887   0.13792423    1.8093146    3.9125178            0    -2211.666   0.02283317   -2211.6625  0.046712529   -2211.6474  0.071777086   -2211.6139  0.098011685     -2211.56    0.1250215   -2211.5281   0.17982456   -2211.6419    0.2407266   -2211.7836   0.31106046   -2211.9645    0.3754185   -2212.4226   0.43832315   -2212.9564   0.50377768   -2213.2713   0.57315353   -2213.3009   0.63655909   -2213.1197   0.69374249   -2212.9264   0.74385233   -2212.8338   0.78670379   -2212.8428   0.82327241   -2212.9143   0.85529931    -2213.014   0.88469353   -2213.1188   0.91307414    -2213.214   0.94152782    -2213.288   0.97052606   -2213.3291            1   -2213.3374 
150  0.045523084  0.010944106 8.0989173e-08 0.00090790953  0.014406594   0.13779087    1.8091818    3.9514334            0    -2211.666  0.023064908   -2211.6624  0.046999077    -2211.647  0.071931264   -2211.6132  0.097796144   -2211.5595   0.12424645   -2211.5282   0.18095362   -2211.6501   0.24248765   -2211.7877   0.31127893   -2211.9523   0.37614197   -2212.4187   0.43992155   -2212.9657   0.50578593   -2213.2759   0.57481188   -2213.3058   0.63750586   -2213.1299   0.69383275   -2212.9354    0.7434085   -2212.8366   0.78624484   -2212.8397   0.82318183    -2212.909   0.85570016   -2213.0098   0.88549115    -2213.117   0.91404873    -2213.214   0.94240949   -2213.2884   0.97105658   -2213.3293            1   -2213.3374 
160   0.13097247  0.010648361 4.0975942e-08 0.00066503865  0.010376459   0.13771574     1.809107    3.9872009            0    -2211.666  0.023321083   -2211.6623  0.047300264   -2211.6467  0.072081921   -2211.6126  0.097603239    -2211.559   0.12357495   -2211.5283   0.18181912   -2211.6569   0.24372872   -2211.7904   0.31109862   -2211.9442   0.37617741   -2212.4157   0.44069225   -2212.9734   0.50690099   -2213.2796   0.57564564   -2213.3109   0.63783175    -2213.141   0.69353589   -2212.9451   0.74271191   -2212.8398   0.78555195   -2212.8369   0.82282869   -2212.9035   0.85582281   -2213.0052   0.88602558   -2213.1147   0.91479729   -2213.2135   0.94311822   -2213.2886   0.97148827   -2213.3294            1   -2213.3374 
170  0.036937739  0.010813099 2.3666116e-08 0.0005191452 0.0080318146   0.13768197    1.8090733    4.0128435            0    -2211.666  0.023491984   -2211.6623  0.047496171   -2211.6464  0.072160688   -2211.6121  0.097439046   -2211.5587   0.12308827   -2211.5283   0.18225171   -2211.6612   0.24433938   -2211.7918   0.31083768   -2211.9403   0.37594171   -2212.4146   0.44083483   -2212.9788   0.50723029   -2213.2819   0.57579513   -2213.3149   0.63769747   -2213.1502   0.69305712    -2212.953   0.74201543   -2212.8426   0.78488112   -2212.8349   0.82240419   -2212.8993   0.85574771   -2213.0013   0.88626708   -2213.1126   0.91522178   -2213.2129   0.94354686   -2213.2886   0.97175503   -2213.3294            1   -2213.3374 
180  0.054501498  0.010996913 9.3533156e-09 0.00034467538 0.0052922595   0.13765262    1.8090441    4.0510323            0    -2211.666  0.023685021   -2211.6622  0.047701733   -2211.6461  0.072185837   -2211.6115  0.097117456   -2211.5583   0.12232078   -2211.5283   0.18254049   -2211.6666   0.24481211   -2211.7934   0.31030123   -2211.9371   0.37529169    -2212.415   0.44051956    -2212.986   0.50707797   -2213.2849   0.57539528   -2213.3208   0.63698035   -2213.1655   0.69197165   -2212.9663   0.74071439   -2212.8477   0.78366115   -2212.8323   0.82154946   -2212.8926   0.85540581   -2212.9948   0.88640576   -2213.1086    0.9156631   -2213.2113   0.94404314   -2213.2883   0.97207523   -2213.3294            1   -2213.3374 
190  0.029903525  0.011035212 5.7555604e-09 0.00027790406 0.0042599483   0.13764452    1.8090361     4.069456            0    -2211.666  0.023744404   -2211.6622  0.047753107   -2211.6459  0.072148882   -2211.6112  0.096921703   -2211.5581   0.12192503   -2211.5284   0.18253181   -2211.6688   0.24487072   -2211.7939   0.30999012   -2211.9365   0.37488786   -2212.4161   0.44020313   -2212.9897   0.50676498   -2213.2862   0.57492735   -2213.3236   0.63638819   -2213.1736   0.69126045   -2212.9736   0.73994911   -2212.8506   0.78295982   -2212.8311   0.82102877   -2212.8893   0.85513068   -2212.9914   0.88636583   -2213.1063   0.91578254   -2213.2103   0.94421277    -2213.288   0.97219209   -2213.3294            1   -2213.3374 
200  0.044875763  0.011027997 3.2147272e-09 0.00021490268 0.0032921672   0.13763847      1.80903    4.0900146            0    -2211.666  0.023785636   -2211.6621  0.047773571   -2211.6458  0.072069953    -2211.611  0.096672557   -2211.5579   0.12146406   -2211.5284   0.18242844    -2211.671   0.24483391   -2211.7945   0.30961194   -2211.9362   0.37438516    -2212.418   0.43971535   -2212.9938   0.50624946   -2213.2876   0.57421213   -2213.3266   0.63553939   -2213.1833   0.69031372   -2212.9824   0.73897796   -2212.8543   0.78208159   -2212.8299   0.82035915   -2212.8854   0.85473569   -2212.9872   0.88623618   -2213.1034   0.91584096   -2213.2089     0.944346   -2213.2875   0.97229237   -2213.3293            1   -2213.3374 
