ITEM: TIMESTEP
9000
ITEM: NUMBER OF ENTRIES
128
ITEM: BOX BOUNDS pp pp pp
0 32.2052
0 32.2052
-0.5 0.5
ITEM: ENTRIES index c_1[1] c_1[2] c_1[3] c_1[4] 
1 5 18.2335 -1.91583 0 
2 5 15.057 0.515283 0 
3 5 17.4881 3.69171 0 
4 5 20.6646 1.26059 0 
5 7 21.3977 1.20937 0 
6 7 21.9848 5.16606 0 
7 7 25.9414 4.57898 0 
8 7 25.3544 0.622301 0 
9 8 25.8438 0.565824 0 
10 8 26.4265 4.52314 0 
11 8 30.3838 3.94038 0 
12 8 29.8011 -0.0169375 0 
13 2 -0.376171 7.90327 0 
14 2 3.50684 6.94297 0 
15 2 2.54654 3.05995 0 
16 2 -1.33648 4.02026 0 
17 3 10.9468 4.81143 0 
18 3 9.54494 1.06513 0 
19 3 5.79864 2.46699 0 
20 3 7.20051 6.2133 0 
21 4 12.9565 4.03981 0 
22 4 12.986 8.0397 0 
23 4 16.9859 8.01021 0 
24 4 16.9564 4.01032 0 
25 1 28.0295 4.90651 0 
26 1 24.0555 5.36241 0 
27 1 24.5114 9.33634 0 
28 1 28.4854 8.88045 0 
29 6 17.4313 4.1871 0 
30 6 17.4716 8.1869 0 
31 6 21.4714 8.14668 0 
32 6 21.4311 4.14688 0 
33 16 -0.993431 10.284 0 
34 16 -0.996503 14.284 0 
35 16 3.0035 14.287 0 
36 16 3.00657 10.2871 0 
37 9 2.83869 8.49056 0 
38 9 4.27856 12.2224 0 
39 9 8.01042 10.7825 0 
40 9 6.57055 7.05069 0 
41 12 13.0996 8.52477 0 
42 12 13.1266 12.5247 0 
43 12 17.1265 12.4977 0 
44 12 17.0995 8.49778 0 
45 13 17.5833 8.67123 0 
46 13 17.6172 12.6711 0 
47 13 21.6171 12.6372 0 
48 13 21.5832 8.63733 0 
49 14 22.2354 10.2712 0 
50 14 22.2343 14.2712 0 
51 14 26.2343 14.2723 0 
52 14 26.2354 10.2723 0 
53 15 26.7236 10.1929 0 
54 15 26.7217 14.1929 0 
55 15 30.7217 14.1948 0 
56 15 30.7236 10.1948 0 
57 10 8.05226 11.2828 0 
58 10 7.31308 15.2139 0 
59 10 11.2442 15.9531 0 
60 10 11.9834 12.022 0 
61 11 12.3154 12.8485 0 
62 11 11.6115 16.786 0 
63 11 15.549 17.49 0 
64 11 16.253 13.5524 0 
65 20 16.7712 13.4197 0 
66 20 16.0678 17.3574 0 
67 20 20.0055 18.0608 0 
68 20 20.7088 14.1231 0 
69 17 2.36156 16.449 0 
70 17 1.91135 20.4236 0 
71 17 5.88594 20.8738 0 
72 17 6.33614 16.8992 0 
73 18 7.2434 15.7 0 
74 18 6.50546 19.6313 0 
75 18 10.4368 20.3693 0 
76 18 11.1747 16.4379 0 
77 23 26.6007 14.7106 0 
78 23 24.2297 17.9322 0 
79 23 27.4513 20.3032 0 
80 23 29.8223 17.0816 0 
81 19 14.8753 19.5826 0 
82 19 10.9366 20.2801 0 
83 19 11.634 24.2188 0 
84 19 15.5728 23.5213 0 
85 21 19.3248 23.7524 0 
86 21 21.5058 20.3993 0 
87 21 18.1527 18.2183 0 
88 21 15.9717 21.5714 0 
89 22 25.9699 19.9634 0 
90 22 21.9743 20.1513 0 
91 22 22.1622 24.1469 0 
92 22 26.1578 23.959 0 
93 24 29.821 17.9157 0 
94 24 29.5228 21.9046 0 
95 24 33.5117 22.2028 0 
96 24 33.8099 18.2139 0 
97 32 29.6829 22.4029 0 
98 32 29.3814 26.3915 0 
99 32 33.3701 26.693 0 
100 32 33.6716 22.7044 0 
101 27 5.30233 25.8163 0 
102 27 6.71297 29.5593 0 
103 27 10.456 28.1486 0 
104 27 9.04534 24.4056 0 
105 28 10.9114 28.6536 0 
106 28 14.9051 28.8768 0 
107 28 15.1283 24.8831 0 
108 28 11.1346 24.6599 0 
109 29 15.6009 25.0866 0 
110 29 15.3771 29.0803 0 
111 29 19.3708 29.3041 0 
112 29 19.5946 25.3104 0 
113 30 20.1294 24.5096 0 
114 30 19.8992 28.5029 0 
115 30 23.8925 28.7332 0 
116 30 24.1228 24.7398 0 
117 31 24.6 24.9708 0 
118 31 25.2275 28.9212 0 
119 31 29.178 28.2937 0 
120 31 28.5504 24.3432 0 
121 26 1.642 28.8227 0 
122 26 3.05193 32.566 0 
123 26 6.7952 31.156 0 
124 26 5.38528 27.4128 0 
125 25 29.0786 28.852 0 
126 25 30.4698 32.6023 0 
127 25 34.2201 31.2111 0 
128 25 32.8289 27.4608 0 
