ITEM: TIMESTEP
3000
ITEM: NUMBER OF ENTRIES
128
ITEM: BOX BOUNDS pp pp pp
0 45.8206
0 45.8206
-0.5 0.5
ITEM: ENTRIES index c_1[1] c_1[2] c_1[3] c_1[4] 
1 1 0.602636 3.55066 0 
2 1 0.602636 7.55066 0 
3 1 4.60264 7.55066 0 
4 1 4.60264 3.55066 0 
5 3 14.0883 4.17879 0 
6 3 13.9737 8.17715 0 
7 3 17.9721 8.29174 0 
8 3 18.0866 4.29338 0 
9 5 25.4245 2.22209 0 
10 5 25.6223 6.21719 0 
11 5 29.6174 6.01934 0 
12 5 29.4196 2.02423 0 
13 7 34.7913 2.73867 0 
14 7 35.7954 6.61059 0 
15 7 39.6673 5.60648 0 
16 7 38.6632 1.73456 0 
17 8 39.255 1.8116 0 
18 8 40.6371 5.56526 0 
19 8 44.3907 4.18319 0 
20 8 43.0087 0.429542 0 
21 2 6.91415 3.79706 0 
22 2 6.74402 7.79344 0 
23 2 10.7404 7.96357 0 
24 2 10.9105 3.96719 0 
25 4 20.2757 8.11876 0 
26 4 22.5863 11.3839 0 
27 4 25.8514 9.0733 0 
28 4 23.5408 5.80816 0 
29 6 30.4362 4.34588 0 
30 6 29.6178 8.26126 0 
31 6 33.5332 9.07969 0 
32 6 34.3516 5.16431 0 
33 9 2.26861 14.2454 0 
34 9 2.23872 18.2452 0 
35 9 6.23861 18.2751 0 
36 9 6.2685 14.2752 0 
37 12 19.0201 13.7198 0 
38 12 19.0253 17.7198 0 
39 12 23.0253 17.7146 0 
40 12 23.0201 13.7146 0 
41 13 23.4997 12.1021 0 
42 13 23.5049 16.1021 0 
43 13 27.5049 16.0969 0 
44 13 27.4997 12.0969 0 
45 10 8.26238 16.8208 0 
46 10 8.23549 20.8208 0 
47 10 12.2354 20.8476 0 
48 10 12.2623 16.8477 0 
49 11 12.7532 17.8665 0 
50 11 12.7263 21.8664 0 
51 11 16.7262 21.8933 0 
52 11 16.7531 17.8934 0 
53 14 32.7649 15.8843 0 
54 14 32.2839 19.8553 0 
55 14 36.2549 20.3363 0 
56 14 36.7358 16.3653 0 
57 15 37.2647 16.4924 0 
58 15 36.8143 20.4669 0 
59 15 40.7889 20.9173 0 
60 15 41.2393 16.9428 0 
61 16 43.57 15.5555 0 
62 16 43.5401 19.5554 0 
63 16 47.54 19.5853 0 
64 16 47.5699 15.5854 0 
65 20 17.7334 21.1886 0 
66 20 17.7334 25.1886 0 
67 20 21.7334 25.1886 0 
68 20 21.7334 21.1886 0 
69 17 3.0471 26.1399 0 
70 17 2.9476 30.1387 0 
71 17 6.94636 30.2382 0 
72 17 7.04587 26.2394 0 
73 18 7.61348 24.8266 0 
74 18 7.43233 28.8224 0 
75 18 11.4282 29.0036 0 
76 18 11.6094 25.0077 0 
77 19 12.1735 27.1113 0 
78 19 12.164 31.1113 0 
79 19 16.164 31.1208 0 
80 19 16.1735 27.1208 0 
81 23 36.9641 23.5718 0 
82 23 37.2006 27.5648 0 
83 23 41.1936 27.3284 0 
84 23 40.9571 23.3354 0 
85 21 22.9696 27.4692 0 
86 21 22.9696 31.4692 0 
87 21 26.9696 31.4692 0 
88 21 26.9696 27.4692 0 
89 22 28.7518 28.2121 0 
90 22 28.7518 32.2121 0 
91 22 32.7518 32.2121 0 
92 22 32.7518 28.2121 0 
93 24 41.2111 28.49 0 
94 24 41.4476 32.483 0 
95 24 45.4406 32.2465 0 
96 24 45.2041 28.2535 0 
97 27 9.09778 38.0701 0 
98 27 9.5954 42.0391 0 
99 27 13.5643 41.5414 0 
100 27 13.0667 37.5725 0 
101 28 18.6286 38.3034 0 
102 28 21.045 41.4911 0 
103 28 24.2326 39.0747 0 
104 28 21.8163 35.8871 0 
105 29 25.6368 33.3702 0 
106 29 23.9918 37.0163 0 
107 29 27.6379 38.6613 0 
108 29 29.2829 35.0152 0 
109 30 29.2117 36.6464 0 
110 30 29.9887 40.5702 0 
111 30 33.9125 39.7933 0 
112 30 33.1355 35.8694 0 
113 31 34.9406 37.0649 0 
114 31 34.4431 41.0338 0 
115 31 38.4121 41.5313 0 
116 31 38.9096 37.5624 0 
117 32 38.5746 34.9865 0 
118 32 39.8153 38.7892 0 
119 32 43.618 37.5484 0 
120 32 42.3773 33.7457 0 
121 25 0.186971 39.3676 0 
122 25 0.428807 43.3602 0 
123 25 4.42149 43.1184 0 
124 25 4.17965 39.1257 0 
125 26 4.81265 40.0339 0 
126 26 4.94666 44.0317 0 
127 26 8.94441 43.8977 0 
128 26 8.8104 39.8999 0 
