ITEM: TIMESTEP
1000
ITEM: NUMBER OF ENTRIES
128
ITEM: BOX BOUNDS pp pp pp
0 55.841
0 55.841
-0.5 0.5
ITEM: ENTRIES index c_1[1] c_1[2] c_1[3] c_1[4] 
1 1 2.25499 4.07164 0 
2 1 2.25499 8.07164 0 
3 1 6.25499 8.07164 0 
4 1 6.25499 4.07164 0 
5 2 9.4937 4.97685 0 
6 2 9.4937 8.97685 0 
7 2 13.4937 8.97685 0 
8 2 13.4937 4.97685 0 
9 3 15.9154 4.34933 0 
10 3 15.9154 8.34933 0 
11 3 19.9154 8.34933 0 
12 3 19.9154 4.34933 0 
13 4 24.0835 5.85045 0 
14 4 24.0835 9.85045 0 
15 4 28.0835 9.85045 0 
16 4 28.0835 5.85045 0 
17 5 31.2036 3.69628 0 
18 5 31.0432 7.69307 0 
19 5 35.04 7.85343 0 
20 5 35.2004 3.85665 0 
21 6 35.6783 5.12231 0 
22 6 35.5179 9.11909 0 
23 6 39.5147 9.27946 0 
24 6 39.6751 5.28268 0 
25 7 44.3033 3.70103 0 
26 7 44.3045 7.70103 0 
27 7 48.3045 7.69983 0 
28 7 48.3033 3.69983 0 
29 8 49.8962 4.00557 0 
30 8 49.8974 8.00557 0 
31 8 53.8974 8.00437 0 
32 8 53.8962 4.00437 0 
33 9 2.80612 17.7876 0 
34 9 2.80612 21.7876 0 
35 9 6.80612 21.7876 0 
36 9 6.80612 17.7876 0 
37 10 9.01816 19.4804 0 
38 10 9.01816 23.4804 0 
39 10 13.0182 23.4804 0 
40 10 13.0182 19.4804 0 
41 11 16.434 18.975 0 
42 11 16.434 22.975 0 
43 11 20.434 22.975 0 
44 11 20.434 18.975 0 
45 12 22.7508 18.4604 0 
46 12 22.7508 22.4604 0 
47 12 26.7508 22.4604 0 
48 12 26.7508 18.4604 0 
49 13 30.1716 17.0791 0 
50 13 30.1716 21.0791 0 
51 13 34.1716 21.0791 0 
52 13 34.1716 17.0791 0 
53 14 37.6527 19.2118 0 
54 14 37.6527 23.2118 0 
55 14 41.6527 23.2118 0 
56 14 41.6527 19.2118 0 
57 15 44.5343 18.6213 0 
58 15 44.5343 22.6213 0 
59 15 48.5343 22.6213 0 
60 15 48.5343 18.6213 0 
61 16 51.1924 19.0674 0 
62 16 51.1924 23.0674 0 
63 16 55.1924 23.0674 0 
64 16 55.1924 19.0674 0 
65 17 3.10072 31.9182 0 
66 17 3.10087 35.9182 0 
67 17 7.10087 35.918 0 
68 17 7.10072 31.918 0 
69 18 8.80582 32.3124 0 
70 18 8.80597 36.3124 0 
71 18 12.806 36.3123 0 
72 18 12.8058 32.3123 0 
73 19 16.1593 32.2155 0 
74 19 16.1593 36.2155 0 
75 19 20.1593 36.2155 0 
76 19 20.1593 32.2155 0 
77 20 22.3278 31.1148 0 
78 20 22.3278 35.1148 0 
79 20 26.3278 35.1148 0 
80 20 26.3278 31.1148 0 
81 21 29.9974 32.3226 0 
82 21 29.9974 36.3226 0 
83 21 33.9974 36.3226 0 
84 21 33.9974 32.3226 0 
85 22 36.145 33.4165 0 
86 22 36.145 37.4165 0 
87 22 40.145 37.4165 0 
88 22 40.145 33.4165 0 
89 23 44.7975 31.0056 0 
90 23 44.7977 35.0056 0 
91 23 48.7977 35.0055 0 
92 23 48.7975 31.0055 0 
93 24 50.5017 33.4677 0 
94 24 50.5019 37.4677 0 
95 24 54.5019 37.4675 0 
96 24 54.5017 33.4675 0 
97 25 2.18293 46.3854 0 
98 25 2.18293 50.3854 0 
99 25 6.18293 50.3854 0 
100 25 6.18293 46.3854 0 
101 27 15.192 45.9253 0 
102 27 15.192 49.9253 0 
103 27 19.192 49.9253 0 
104 27 19.192 45.9253 0 
105 29 30.3532 44.9259 0 
106 29 30.3532 48.9259 0 
107 29 34.3532 48.9259 0 
108 29 34.3532 44.9259 0 
109 31 42.6405 45.9468 0 
110 31 42.6405 49.9468 0 
111 31 46.6405 49.9468 0 
112 31 46.6405 45.9468 0 
113 26 8.0128 47.4675 0 
114 26 8.0128 51.4675 0 
115 26 12.0128 51.4675 0 
116 26 12.0128 47.4675 0 
117 28 23.9624 46.3208 0 
118 28 23.9624 50.3208 0 
119 28 27.9624 50.3208 0 
120 28 27.9624 46.3208 0 
121 30 37.2015 45.9084 0 
122 30 37.2015 49.9084 0 
123 30 41.2015 49.9084 0 
124 30 41.2015 45.9084 0 
125 32 49.4624 45.5772 0 
126 32 49.4624 49.5772 0 
127 32 53.4624 49.5772 0 
128 32 53.4624 45.5772 0 
