ITEM: TIMESTEP
5000
ITEM: NUMBER OF ENTRIES
128
ITEM: BOX BOUNDS pp pp pp
0 39.6773
0 39.6773
-0.5 0.5
ITEM: ENTRIES index c_1[1] c_1[2] c_1[3] c_1[4] 
1 8 32.7753 0.080933 0 
2 8 35.05 3.37113 0 
3 8 38.3402 1.09637 0 
4 8 36.0655 -2.19384 0 
5 1 -0.781998 3.16249 0 
6 1 -1.55071 7.08793 0 
7 1 2.37473 7.85664 0 
8 1 3.14344 3.9312 0 
9 2 3.66698 3.52037 0 
10 2 3.98347 7.50783 0 
11 2 7.97093 7.19135 0 
12 2 7.65444 3.20389 0 
13 3 14.4015 2.98421 0 
14 3 11.9385 6.13595 0 
15 3 15.0903 8.59898 0 
16 3 17.5533 5.44724 0 
17 5 23.9398 0.169887 0 
18 5 21.7813 3.53747 0 
19 5 25.1489 5.69603 0 
20 5 27.3074 2.32844 0 
21 7 29.1507 2.7476 0 
22 7 31.4456 6.02383 0 
23 7 34.7218 3.72899 0 
24 7 32.427 0.452759 0 
25 4 18.3928 6.27804 0 
26 4 18.6833 10.2675 0 
27 4 22.6727 9.97699 0 
28 4 22.3822 5.98755 0 
29 6 26.1652 4.97735 0 
30 6 26.1771 8.97733 0 
31 6 30.1771 8.96541 0 
32 6 30.1652 4.96543 0 
33 13 20.9431 10.7648 0 
34 13 21.5243 14.7224 0 
35 13 25.4819 14.1411 0 
36 13 24.9006 10.1835 0 
37 9 2.7542 11.9669 0 
38 9 2.72089 15.9667 0 
39 9 6.72075 16 0 
40 9 6.75406 12.0002 0 
41 12 16.4931 11.1805 0 
42 12 16.9725 15.1516 0 
43 12 20.9437 14.6722 0 
44 12 20.4642 10.701 0 
45 16 -1.98415 13.7166 0 
46 16 -1.61107 17.6992 0 
47 16 2.37149 17.3261 0 
48 16 1.99841 13.3435 0 
49 10 7.21925 15.609 0 
50 10 7.16379 19.6087 0 
51 10 11.1634 19.6641 0 
52 10 11.2189 15.6645 0 
53 11 11.7007 16.5854 0 
54 11 11.7529 20.585 0 
55 11 15.7526 20.5328 0 
56 11 15.7004 16.5332 0 
57 20 16.3896 16.0312 0 
58 20 17.1024 19.9672 0 
59 20 21.0384 19.2543 0 
60 20 20.3255 15.3184 0 
61 14 28.8154 14.7826 0 
62 14 29.0923 18.7731 0 
63 14 33.0827 18.4961 0 
64 14 32.8058 14.5057 0 
65 15 33.3095 14.5646 0 
66 15 33.6015 18.5539 0 
67 15 37.5908 18.262 0 
68 15 37.2989 14.2727 0 
69 17 1.85502 22.1345 0 
70 17 1.74192 26.1329 0 
71 17 5.74033 26.246 0 
72 17 5.85342 22.2476 0 
73 18 7.15212 20.6436 0 
74 18 6.72219 24.6205 0 
75 18 10.699 25.0504 0 
76 18 11.1289 21.0736 0 
77 23 33.3206 18.9212 0 
78 23 31.9861 22.692 0 
79 23 35.7569 24.0265 0 
80 23 37.0914 20.2557 0 
81 19 11.3381 23.8039 0 
82 19 10.7313 27.7576 0 
83 19 14.685 28.3644 0 
84 19 15.2918 24.4107 0 
85 21 17.2588 25.1427 0 
86 21 21.0138 26.5212 0 
87 21 22.3922 22.7662 0 
88 21 18.6372 21.3878 0 
89 22 25.1043 24.1859 0 
90 22 23.9116 28.004 0 
91 22 27.7296 29.1967 0 
92 22 28.9223 25.3786 0 
93 24 37.1131 22.3899 0 
94 24 35.277 25.9436 0 
95 24 38.8307 27.7797 0 
96 24 40.6668 24.226 0 
97 29 21.4589 28.2634 0 
98 29 19.0222 31.4356 0 
99 29 22.1944 33.8722 0 
100 29 24.631 30.7 0 
101 28 14.1263 34.7072 0 
102 28 18.1191 34.4684 0 
103 28 17.8803 30.4755 0 
104 28 13.8874 30.7144 0 
105 30 25.5833 30.0515 0 
106 30 24.3307 33.8503 0 
107 30 28.1295 35.1029 0 
108 30 29.3821 31.3041 0 
109 32 34.0326 29.0456 0 
110 32 34.7589 32.9791 0 
111 32 38.6924 32.2528 0 
112 32 37.9661 28.3193 0 
113 27 5.99942 33.4439 0 
114 27 7.1647 37.2704 0 
115 27 10.9912 36.1051 0 
116 27 9.82593 32.2786 0 
117 31 30.136 34.4088 0 
118 31 32.6445 37.5245 0 
119 31 35.7602 35.0161 0 
120 31 33.2518 31.9004 0 
121 25 37.1421 35.3437 0 
122 25 37.8758 39.2758 0 
123 25 41.8079 38.5422 0 
124 25 41.0743 34.61 0 
125 26 2.17717 36.2392 0 
126 26 3.1714 40.1137 0 
127 26 7.04587 39.1195 0 
128 26 6.05164 35.245 0 
