ITEM: TIMESTEP
2000
ITEM: NUMBER OF ENTRIES
128
ITEM: BOX BOUNDS pp pp pp
0 49.8663
0 49.8663
-0.5 0.5
ITEM: ENTRIES index c_1[1] c_1[2] c_1[3] c_1[4] 
1 1 1.37593 3.69309 0 
2 1 1.37593 7.69309 0 
3 1 5.37593 7.69309 0 
4 1 5.37593 3.69309 0 
5 5 27.5423 2.81541 0 
6 5 27.2563 6.80517 0 
7 5 31.2461 7.09116 0 
8 5 31.5321 3.1014 0 
9 7 39.1592 3.00654 0 
10 7 39.2957 7.00421 0 
11 7 43.2934 6.86771 0 
12 7 43.1569 2.87004 0 
13 8 43.7356 2.35858 0 
14 8 43.7431 6.35857 0 
15 8 47.7431 6.3511 0 
16 8 47.7356 2.3511 0 
17 2 8.7301 4.23862 0 
18 2 8.68009 8.23831 0 
19 2 12.6798 8.28832 0 
20 2 12.7298 4.28863 0 
21 3 13.9107 4.19272 0 
22 3 13.8964 8.19269 0 
23 3 17.8964 8.20699 0 
24 3 17.9107 4.20702 0 
25 4 22.477 6.17915 0 
26 4 22.9216 10.1544 0 
27 4 26.8969 9.70972 0 
28 4 26.4522 5.73451 0 
29 6 32.3571 4.41978 0 
30 6 31.4632 8.31862 0 
31 6 35.3621 9.21251 0 
32 6 36.256 5.31367 0 
33 9 2.45431 15.6816 0 
34 9 2.45431 19.6816 0 
35 9 6.45431 19.6816 0 
36 9 6.45431 15.6816 0 
37 10 8.42212 17.7565 0 
38 10 8.42212 21.7565 0 
39 10 12.4221 21.7565 0 
40 10 12.4221 17.7565 0 
41 11 14.2705 18.0051 0 
42 11 14.2705 22.0051 0 
43 11 18.2705 22.0051 0 
44 11 18.2705 18.0051 0 
45 12 20.4433 15.7607 0 
46 12 20.4433 19.7607 0 
47 12 24.4433 19.7607 0 
48 12 24.4433 15.7607 0 
49 13 26.3014 14.2954 0 
50 13 26.3014 18.2954 0 
51 13 30.3014 18.2954 0 
52 13 30.3014 14.2954 0 
53 14 34.7611 17.229 0 
54 14 34.757 21.229 0 
55 14 38.757 21.2332 0 
56 14 38.7611 17.2332 0 
57 15 39.5472 17.3144 0 
58 15 39.5505 21.3144 0 
59 15 43.5505 21.3111 0 
60 15 43.5472 17.3111 0 
61 16 46.396 16.9484 0 
62 16 46.396 20.9484 0 
63 16 50.396 20.9484 0 
64 16 50.396 16.9484 0 
65 17 3.0427 28.4852 0 
66 17 3.05342 32.4852 0 
67 17 7.05341 32.4745 0 
68 17 7.04269 28.4745 0 
69 20 19.6157 25.6721 0 
70 20 19.6157 29.6721 0 
71 20 23.6157 29.6721 0 
72 20 23.6157 25.6721 0 
73 23 40.0683 26.7092 0 
74 23 40.0951 30.7091 0 
75 23 44.095 30.6824 0 
76 23 44.0683 26.6825 0 
77 18 7.99211 28.0143 0 
78 18 7.98717 32.0143 0 
79 18 11.9872 32.0193 0 
80 18 11.9921 28.0193 0 
81 19 13.7331 29.0632 0 
82 19 13.7331 33.0632 0 
83 19 17.7331 33.0632 0 
84 19 17.7331 29.0632 0 
85 21 25.9607 29.2728 0 
86 21 25.9607 33.2728 0 
87 21 29.9607 33.2728 0 
88 21 29.9607 29.2728 0 
89 22 31.8023 30.1759 0 
90 22 31.8023 34.1759 0 
91 22 35.8023 34.1759 0 
92 22 35.8023 30.1759 0 
93 24 45.0205 30.2892 0 
94 24 45.0472 34.2891 0 
95 24 49.0471 34.2624 0 
96 24 49.0204 30.2625 0 
97 25 1.23493 41.9401 0 
98 25 1.23493 45.9401 0 
99 25 5.23493 45.9401 0 
100 25 5.23493 41.9401 0 
101 26 6.45496 42.8199 0 
102 26 6.45496 46.8199 0 
103 26 10.455 46.8199 0 
104 26 10.455 42.8199 0 
105 27 11.8403 41.0397 0 
106 27 11.8403 45.0397 0 
107 27 15.8403 45.0397 0 
108 27 15.8403 41.0397 0 
109 28 21.9428 40.8995 0 
110 28 22.4873 44.8623 0 
111 28 26.4501 44.3178 0 
112 28 25.9056 40.355 0 
113 29 27.0093 39.2387 0 
114 29 27.3982 43.2197 0 
115 29 31.3792 42.8308 0 
116 29 30.9903 38.8498 0 
117 30 32.6764 39.5062 0 
118 30 31.536 43.3401 0 
119 30 35.37 44.4806 0 
120 30 36.5104 40.6466 0 
121 31 38.3978 40.4055 0 
122 31 37.3081 44.2542 0 
123 31 41.1568 45.3439 0 
124 31 42.2465 41.4952 0 
125 32 43.0101 39.121 0 
126 32 43.0097 43.121 0 
127 32 47.0097 43.1214 0 
128 32 47.0101 39.1214 0 
