ITEM: TIMESTEP
0
ITEM: NUMBER OF ENTRIES
128
ITEM: BOX BOUNDS pp pp pp
0 48
0 48
-0.5 0.5
ITEM: ENTRIES index c_1[1] c_1[2] c_1[3] c_1[4] 
1 1 2 3 0 
2 1 2 7 0 
3 1 6 7 0 
4 1 6 3 0 
5 2 7 4 0 
6 2 7 8 0 
7 2 11 8 0 
8 2 11 4 0 
9 3 14 3 0 
10 3 14 7 0 
11 3 18 7 0 
12 3 18 3 0 
13 4 19 4 0 
14 4 19 8 0 
15 4 23 8 0 
16 4 23 4 0 
17 5 26 3 0 
18 5 26 7 0 
19 5 30 7 0 
20 5 30 3 0 
21 6 31 4 0 
22 6 31 8 0 
23 6 35 8 0 
24 6 35 4 0 
25 7 38 3 0 
26 7 38 7 0 
27 7 42 7 0 
28 7 42 3 0 
29 8 43 4 0 
30 8 43 8 0 
31 8 47 8 0 
32 8 47 4 0 
33 9 2 15 0 
34 9 2 19 0 
35 9 6 19 0 
36 9 6 15 0 
37 10 7 16 0 
38 10 7 20 0 
39 10 11 20 0 
40 10 11 16 0 
41 11 14 15 0 
42 11 14 19 0 
43 11 18 19 0 
44 11 18 15 0 
45 12 19 16 0 
46 12 19 20 0 
47 12 23 20 0 
48 12 23 16 0 
49 13 26 15 0 
50 13 26 19 0 
51 13 30 19 0 
52 13 30 15 0 
53 14 31 16 0 
54 14 31 20 0 
55 14 35 20 0 
56 14 35 16 0 
57 15 38 15 0 
58 15 38 19 0 
59 15 42 19 0 
60 15 42 15 0 
61 16 43 16 0 
62 16 43 20 0 
63 16 47 20 0 
64 16 47 16 0 
65 17 2 27 0 
66 17 2 31 0 
67 17 6 31 0 
68 17 6 27 0 
69 18 7 28 0 
70 18 7 32 0 
71 18 11 32 0 
72 18 11 28 0 
73 19 14 27 0 
74 19 14 31 0 
75 19 18 31 0 
76 19 18 27 0 
77 20 19 28 0 
78 20 19 32 0 
79 20 23 32 0 
80 20 23 28 0 
81 21 26 27 0 
82 21 26 31 0 
83 21 30 31 0 
84 21 30 27 0 
85 22 31 28 0 
86 22 31 32 0 
87 22 35 32 0 
88 22 35 28 0 
89 23 38 27 0 
90 23 38 31 0 
91 23 42 31 0 
92 23 42 27 0 
93 24 43 28 0 
94 24 43 32 0 
95 24 47 32 0 
96 24 47 28 0 
97 25 2 39 0 
98 25 2 43 0 
99 25 6 43 0 
100 25 6 39 0 
101 27 14 39 0 
102 27 14 43 0 
103 27 18 43 0 
104 27 18 39 0 
105 29 26 39 0 
106 29 26 43 0 
107 29 30 43 0 
108 29 30 39 0 
109 31 38 39 0 
110 31 38 43 0 
111 31 42 43 0 
112 31 42 39 0 
113 26 7 40 0 
114 26 7 44 0 
115 26 11 44 0 
116 26 11 40 0 
117 28 19 40 0 
118 28 19 44 0 
119 28 23 44 0 
120 28 23 40 0 
121 30 31 40 0 
122 30 31 44 0 
123 30 35 44 0 
124 30 35 40 0 
125 32 43 40 0 
126 32 43 44 0 
127 32 47 44 0 
128 32 47 40 0 
