ITEM: TIMESTEP
7000
ITEM: NUMBER OF ENTRIES
128
ITEM: BOX BOUNDS pp pp pp
0 35.0355
0 35.0355
-0.5 0.5
ITEM: ENTRIES index c_1[1] c_1[2] c_1[3] c_1[4] 
1 5 22.8404 -0.637813 0 
2 5 19.1424 0.886877 0 
3 5 20.6671 4.58489 0 
4 5 24.3651 3.0602 0 
5 7 24.6217 2.50707 0 
6 7 26.6614 5.94799 0 
7 7 30.1023 3.90836 0 
8 7 28.0627 0.467443 0 
9 8 28.4086 0.10785 0 
10 8 30.448 3.54893 0 
11 8 33.8891 1.50956 0 
12 8 31.8497 -1.93151 0 
13 2 0.879649 5.48385 0 
14 2 3.91509 8.08886 0 
15 2 6.5201 5.05342 0 
16 2 3.48466 2.4484 0 
17 3 15.1238 3.76054 0 
18 3 11.3013 2.58229 0 
19 3 10.123 6.40482 0 
20 3 13.9455 7.58307 0 
21 1 32.5243 2.88588 0 
22 1 29.6323 5.6493 0 
23 1 32.3957 8.54127 0 
24 1 35.2877 5.77784 0 
25 4 16.5277 4.69407 0 
26 4 16.2134 8.6817 0 
27 4 20.201 8.99607 0 
28 4 20.5154 5.00844 0 
29 6 21.0035 5.09936 0 
30 6 20.7148 9.08892 0 
31 6 24.7044 9.37764 0 
32 6 24.9931 5.38807 0 
33 9 2.38302 10.2445 0 
34 9 3.67869 14.0288 0 
35 9 7.46303 12.7331 0 
36 9 6.16737 8.9488 0 
37 12 14.7295 9.57548 0 
38 12 14.9409 13.5699 0 
39 12 18.9353 13.3585 0 
40 12 18.7239 9.36409 0 
41 13 20.2507 9.48591 0 
42 13 19.4668 13.4083 0 
43 13 23.3892 14.1923 0 
44 13 24.1732 10.2698 0 
45 16 -1.69024 11.7381 0 
46 16 -1.35255 15.7238 0 
47 16 2.63317 15.3862 0 
48 16 2.29549 11.4004 0 
49 10 7.88334 12.9746 0 
50 10 7.13972 16.9049 0 
51 10 11.07 17.6485 0 
52 10 11.8136 13.7182 0 
53 20 16.7413 14.3115 0 
54 20 16.177 18.2715 0 
55 20 20.137 18.8357 0 
56 20 20.7013 14.8757 0 
57 14 24.3731 12.4746 0 
58 14 24.7258 16.459 0 
59 14 28.7103 16.1063 0 
60 14 28.3575 12.1219 0 
61 15 28.8634 12.1204 0 
62 15 29.212 16.1052 0 
63 15 33.1968 15.7566 0 
64 15 32.8482 11.7718 0 
65 11 12.3069 13.6209 0 
66 11 11.7352 17.5799 0 
67 11 15.6941 18.1516 0 
68 11 16.2659 14.1927 0 
69 17 2.07322 18.5303 0 
70 17 1.39257 22.472 0 
71 17 5.33423 23.1526 0 
72 17 6.01488 19.211 0 
73 18 6.88026 17.3538 0 
74 18 6.14563 21.2858 0 
75 18 10.0776 22.0204 0 
76 18 10.8122 18.0885 0 
77 21 17.7408 24.7277 0 
78 21 20.7404 22.0816 0 
79 21 18.0942 19.0819 0 
80 21 15.0946 21.7281 0 
81 23 29.0053 16.5381 0 
82 23 26.9748 19.9844 0 
83 23 30.4211 22.0149 0 
84 23 32.4516 18.5686 0 
85 24 32.0556 20.1853 0 
86 24 31.8865 24.1817 0 
87 24 35.8829 24.3508 0 
88 24 36.052 20.3544 0 
89 19 13.1013 20.2233 0 
90 19 10.0902 22.8564 0 
91 19 12.7233 25.8675 0 
92 19 15.7344 23.2344 0 
93 22 24.3203 20.7341 0 
94 22 20.8499 22.7232 0 
95 22 22.839 26.1936 0 
96 22 26.3094 24.2045 0 
97 28 10.869 30.1426 0 
98 28 14.841 30.615 0 
99 28 15.3134 26.643 0 
100 28 11.3414 26.1706 0 
101 29 16.3653 26.4091 0 
102 29 15.3629 30.2815 0 
103 29 19.2352 31.2839 0 
104 29 20.2376 27.4115 0 
105 32 31.5681 24.5524 0 
106 32 31.0218 28.5149 0 
107 32 34.9843 29.0612 0 
108 32 35.5306 25.0987 0 
109 27 5.86483 28.6019 0 
110 27 6.86543 32.4747 0 
111 27 10.7383 31.4741 0 
112 27 9.73766 27.6013 0 
113 30 21.8453 26.2277 0 
114 30 20.1062 29.8298 0 
115 30 23.7083 31.5689 0 
116 30 25.4475 27.9668 0 
117 31 26.1352 29.8082 0 
118 31 28.8162 32.7767 0 
119 31 31.7848 30.0957 0 
120 31 29.1038 27.1272 0 
121 26 1.99664 31.5822 0 
122 26 3.03541 35.445 0 
123 26 6.89817 34.4062 0 
124 26 5.8594 30.5435 0 
125 25 32.111 30.5579 0 
126 25 33.1492 34.4208 0 
127 25 37.0121 33.3827 0 
128 25 35.974 29.5197 0 
