ITEM: TIMESTEP
10000
ITEM: NUMBER OF ENTRIES
128
ITEM: BOX BOUNDS pp pp pp
0 31.0545
0 31.0545
-0.5 0.5
ITEM: ENTRIES index c_1[1] c_1[2] c_1[3] c_1[4] 
1 5 16.8964 -2.52533 0 
2 5 13.3058 -0.762453 0 
3 5 15.0687 2.82813 0 
4 5 18.6592 1.06526 0 
5 7 20.1943 0.134797 0 
6 7 19.83 4.11817 0 
7 7 23.8134 4.48246 0 
8 7 24.1777 0.499079 0 
9 8 24.6701 0.385061 0 
10 8 24.3103 4.36885 0 
11 8 28.2941 4.72858 0 
12 8 28.6539 0.744783 0 
13 2 0.395631 8.61281 0 
14 2 3.96558 6.80853 0 
15 2 2.1613 3.23858 0 
16 2 -1.40865 5.04286 0 
17 3 7.43129 4.34986 0 
18 3 6.77804 0.403566 0 
19 3 2.83174 1.05681 0 
20 3 3.48499 5.00311 0 
21 4 10.6417 4.00778 0 
22 4 11.3559 7.94352 0 
23 4 15.2916 7.22939 0 
24 4 14.5775 3.29365 0 
25 6 15.0727 3.30353 0 
26 6 15.7889 7.23888 0 
27 6 19.7243 6.52264 0 
28 6 19.008 2.58729 0 
29 9 3.33659 7.67668 0 
30 9 3.9655 11.6269 0 
31 9 7.91575 10.998 0 
32 9 7.28684 7.04778 0 
33 1 25.7647 4.98497 0 
34 1 21.7673 5.12975 0 
35 1 21.9121 9.12713 0 
36 1 25.9095 8.98235 0 
37 16 -0.985858 9.32333 0 
38 16 -0.849969 13.321 0 
39 16 3.14772 13.1851 0 
40 16 3.01183 9.18744 0 
41 12 11.5623 8.39788 0 
42 12 12.2733 12.3342 0 
43 12 16.2096 11.6232 0 
44 12 15.4986 7.68686 0 
45 13 15.9957 7.68987 0 
46 13 16.707 11.6261 0 
47 13 20.6432 10.9148 0 
48 13 19.9319 6.97857 0 
49 14 21.0894 9.6462 0 
50 14 21.2256 13.6439 0 
51 14 25.2233 13.5077 0 
52 14 25.0871 9.51001 0 
53 15 25.5785 9.53205 0 
54 15 25.7162 13.5297 0 
55 15 29.7138 13.3921 0 
56 15 29.5762 9.39442 0 
57 10 7.68166 11.518 0 
58 10 7.42205 15.5095 0 
59 10 11.4136 15.7691 0 
60 10 11.6732 11.7776 0 
61 11 12.4819 12.7907 0 
62 11 11.9052 16.7489 0 
63 11 15.8634 17.3256 0 
64 11 16.4401 13.3674 0 
65 20 16.9271 13.4091 0 
66 20 16.3494 17.3671 0 
67 20 20.3075 17.9448 0 
68 20 20.8851 13.9867 0 
69 17 2.98869 16.0794 0 
70 17 2.55192 20.0555 0 
71 17 6.528 20.4923 0 
72 17 6.96478 16.5162 0 
73 18 7.48412 16.0081 0 
74 18 7.23296 20.0002 0 
75 18 11.2251 20.2513 0 
76 18 11.4762 16.2592 0 
77 23 25.2174 14.0123 0 
78 23 23.9773 17.8152 0 
79 23 27.7802 19.0553 0 
80 23 29.0203 15.2524 0 
81 19 15.7489 19.634 0 
82 19 11.7489 19.6219 0 
83 19 11.7368 23.6219 0 
84 19 15.7368 23.634 0 
85 21 19.948 23.3163 0 
86 21 21.539 19.6463 0 
87 21 17.869 18.0553 0 
88 21 16.278 21.7253 0 
89 22 26.0209 19.2227 0 
90 22 22.0217 19.3051 0 
91 22 22.1041 23.3043 0 
92 22 26.1033 23.2219 0 
93 24 -1.94498 17.189 0 
94 24 -1.94817 21.189 0 
95 24 2.05183 21.1922 0 
96 24 2.05501 17.1922 0 
97 32 -1.93089 21.6781 0 
98 32 -1.93316 25.6781 0 
99 32 2.06684 25.6803 0 
100 32 2.06911 21.6803 0 
101 27 5.36411 24.9342 0 
102 27 6.76923 28.6793 0 
103 27 10.5143 27.2742 0 
104 27 9.10919 23.5291 0 
105 28 11.1048 28.2771 0 
106 28 15.103 28.1573 0 
107 28 14.9832 24.1591 0 
108 28 10.985 24.2789 0 
109 29 15.4763 24.1106 0 
110 29 15.5977 28.1088 0 
111 29 19.5959 27.9874 0 
112 29 19.4745 23.9892 0 
113 30 19.9781 23.8385 0 
114 30 20.0662 27.8375 0 
115 30 24.0653 27.7494 0 
116 30 23.9772 23.7504 0 
117 31 24.4665 23.7434 0 
118 31 24.5564 27.7424 0 
119 31 28.5554 27.6525 0 
120 31 28.4655 23.6535 0 
121 26 1.54339 27.6904 0 
122 26 2.64854 31.5347 0 
123 26 6.49284 30.4295 0 
124 26 5.38769 26.5852 0 
125 25 28.1049 28.2202 0 
126 25 29.188 32.0708 0 
127 25 33.0386 30.9878 0 
128 25 31.9555 27.1372 0 
