ITEM: TIMESTEP
4000
ITEM: NUMBER OF ENTRIES
128
ITEM: BOX BOUNDS pp pp pp
0 41.7198
0 41.7198
-0.5 0.5
ITEM: ENTRIES index c_1[1] c_1[2] c_1[3] c_1[4] 
1 8 35.244 0.643644 0 
2 8 37.2534 4.10233 0 
3 8 40.7121 2.09297 0 
4 8 38.7027 -1.36571 0 
5 1 -0.172275 3.4006 0 
6 1 -0.172251 7.4006 0 
7 1 3.82775 7.40058 0 
8 1 3.82772 3.40058 0 
9 2 5.09174 3.35049 0 
10 2 4.80283 7.34004 0 
11 2 8.79239 7.62895 0 
12 2 9.0813 3.6394 0 
13 3 14.0582 3.7731 0 
14 3 13.3325 7.70673 0 
15 3 17.2661 8.43241 0 
16 3 17.9918 4.49879 0 
17 5 23.879 1.07899 0 
18 5 23.2759 5.03326 0 
19 5 27.2302 5.63635 0 
20 5 27.8333 1.68208 0 
21 7 31.166 2.60728 0 
22 7 32.9954 6.16443 0 
23 7 36.5526 4.33504 0 
24 7 34.7232 0.777889 0 
25 4 18.127 7.40843 0 
26 4 19.4579 11.1805 0 
27 4 23.23 9.84959 0 
28 4 21.8991 6.0775 0 
29 6 27.8986 4.41194 0 
30 6 27.4323 8.38466 0 
31 6 31.405 8.85103 0 
32 6 31.8714 4.87831 0 
33 9 2.55669 12.8521 0 
34 9 2.74546 16.8476 0 
35 9 6.74101 16.6589 0 
36 9 6.55223 12.6633 0 
37 12 17.1135 11.8297 0 
38 12 17.4712 15.8137 0 
39 12 21.4552 15.456 0 
40 12 21.0975 11.4721 0 
41 13 21.5376 11.1419 0 
42 13 22.2298 15.0815 0 
43 13 26.1695 14.3893 0 
44 13 25.4772 10.4496 0 
45 10 7.28076 15.7954 0 
46 10 7.02257 19.7871 0 
47 10 11.0142 20.0453 0 
48 10 11.2724 16.0536 0 
49 14 30.373 14.7334 0 
50 14 29.8434 18.6982 0 
51 14 33.8082 19.2277 0 
52 14 34.3378 15.2629 0 
53 15 34.7847 15.535 0 
54 15 34.5446 19.5278 0 
55 15 38.5374 19.7678 0 
56 15 38.7775 15.775 0 
57 16 -1.98323 14.4741 0 
58 16 -1.52954 18.4483 0 
59 16 2.44465 17.9946 0 
60 16 1.99096 14.0204 0 
61 11 11.6878 17.2044 0 
62 11 11.7082 21.2043 0 
63 11 15.7082 21.1839 0 
64 11 15.6878 17.184 0 
65 20 16.1721 17.3659 0 
66 20 16.5216 21.3506 0 
67 20 20.5063 21.0011 0 
68 20 20.1568 17.0164 0 
69 23 34.145 20.4296 0 
70 23 33.812 24.4158 0 
71 23 37.7981 24.7488 0 
72 23 38.1311 20.7627 0 
73 17 2.48455 23.4296 0 
74 17 2.23543 27.4218 0 
75 17 6.22766 27.671 0 
76 17 6.47679 23.6787 0 
77 18 7.02555 22.1501 0 
78 18 6.82657 26.1451 0 
79 18 10.8216 26.3441 0 
80 18 11.0206 22.3491 0 
81 19 11.3981 24.8759 0 
82 19 11.1808 28.87 0 
83 19 15.1749 29.0873 0 
84 19 15.3922 25.0932 0 
85 21 19.2162 25.5762 0 
86 21 20.9262 29.1922 0 
87 21 24.5422 27.4822 0 
88 21 22.8322 23.8662 0 
89 22 25.6565 26.2185 0 
90 22 25.6558 30.2185 0 
91 22 29.6558 30.2193 0 
92 22 29.6565 26.2193 0 
93 24 38.5155 24.4355 0 
94 24 37.0577 28.1604 0 
95 24 40.7826 29.6182 0 
96 24 42.2404 25.8933 0 
97 28 15.5793 35.8326 0 
98 28 19.2562 37.4077 0 
99 28 20.8313 33.7309 0 
100 28 17.1544 32.1558 0 
101 29 23.4735 29.203 0 
102 29 21.2357 32.5184 0 
103 29 24.5511 34.7563 0 
104 29 26.7889 31.4409 0 
105 30 26.6897 32.353 0 
106 30 26.7786 36.3521 0 
107 30 30.7776 36.2632 0 
108 30 30.6888 32.2642 0 
109 32 35.1372 31.1319 0 
110 32 36.1658 34.9974 0 
111 32 40.0313 33.9688 0 
112 32 39.0027 30.1033 0 
113 25 -1.72339 37.0077 0 
114 25 -0.972424 40.9366 0 
115 25 2.95645 40.1856 0 
116 25 2.20548 36.2568 0 
117 26 3.05193 37.3422 0 
118 26 3.6317 41.2999 0 
119 26 7.58946 40.7202 0 
120 26 7.00969 36.7624 0 
121 27 7.23929 34.8092 0 
122 27 7.90568 38.7533 0 
123 27 11.8498 38.0869 0 
124 27 11.1834 34.1428 0 
125 31 31.167 35.1166 0 
126 31 32.9804 38.6819 0 
127 31 36.5457 36.8685 0 
128 31 34.7323 33.3032 0 
