ITEM: TIMESTEP
6000
ITEM: NUMBER OF ENTRIES
128
ITEM: BOX BOUNDS pp pp pp
0 36.6765
0 36.6765
-0.5 0.5
ITEM: ENTRIES index c_1[1] c_1[2] c_1[3] c_1[4] 
1 5 23.7319 -0.312326 0 
2 5 20.2033 1.57162 0 
3 5 22.0873 5.10018 0 
4 5 25.6158 3.21624 0 
5 7 25.9371 2.80833 0 
6 7 28.2942 6.04002 0 
7 7 31.5259 3.68287 0 
8 7 29.1688 0.451178 0 
9 8 29.6137 0.0689476 0 
10 8 31.894 3.35533 0 
11 8 35.1804 1.07506 0 
12 8 32.9001 -2.21133 0 
13 1 34.63 2.85061 0 
14 1 33.2593 6.60844 0 
15 1 37.0171 7.97908 0 
16 1 38.3878 4.22125 0 
17 2 2.17594 4.32535 0 
18 2 3.91959 7.92531 0 
19 2 7.51955 6.18165 0 
20 2 5.77589 2.5817 0 
21 3 14.6322 2.76915 0 
22 3 10.8815 4.15898 0 
23 3 12.2713 7.90976 0 
24 3 16.0221 6.51994 0 
25 4 17.6775 5.32671 0 
26 4 17.7645 9.32576 0 
27 4 21.7636 9.23867 0 
28 4 21.6765 5.23962 0 
29 6 22.9116 5.39 0 
30 6 23.0775 9.38656 0 
31 6 27.074 9.22072 0 
32 6 26.9082 5.22416 0 
33 12 15.6869 9.63282 0 
34 12 15.2547 13.6094 0 
35 12 19.2313 14.0416 0 
36 12 19.6635 10.065 0 
37 13 20.6211 9.81338 0 
38 13 19.7534 13.7181 0 
39 13 23.6582 14.5858 0 
40 13 24.5259 10.6811 0 
41 16 -1.81507 12.5992 0 
42 16 -1.3239 16.569 0 
43 16 2.64583 16.0778 0 
44 16 2.15466 12.1081 0 
45 9 2.69334 10.7954 0 
46 9 2.95439 14.7868 0 
47 9 6.94587 14.5258 0 
48 9 6.68481 10.5343 0 
49 15 30.3922 13.034 0 
50 15 30.8692 17.0055 0 
51 15 34.8407 16.5285 0 
52 15 34.3637 12.557 0 
53 10 7.50031 14.2027 0 
54 10 6.87708 18.1538 0 
55 10 10.8282 18.777 0 
56 10 11.4515 14.8259 0 
57 11 11.9532 14.6754 0 
58 11 11.8192 18.6731 0 
59 11 15.8169 18.8072 0 
60 11 15.951 14.8094 0 
61 20 16.6801 14.7596 0 
62 20 16.9328 18.7516 0 
63 20 20.9248 18.499 0 
64 20 20.6722 14.5069 0 
65 14 25.9453 13.4615 0 
66 14 26.3822 17.4376 0 
67 14 30.3583 17.0006 0 
68 14 29.9213 13.0245 0 
69 18 7.01918 18.6201 0 
70 18 6.23019 22.5416 0 
71 18 10.1516 23.3305 0 
72 18 10.9406 19.4091 0 
73 23 30.6368 17.4172 0 
74 23 28.973 21.0547 0 
75 23 32.6105 22.7186 0 
76 23 34.2743 19.081 0 
77 17 2.24361 19.8052 0 
78 17 1.4311 23.7218 0 
79 17 5.34771 24.5343 0 
80 17 6.16022 20.6177 0 
81 19 10.9316 21.9447 0 
82 19 10.0014 25.835 0 
83 19 13.8917 26.7652 0 
84 19 14.8219 22.8749 0 
85 21 16.785 24.2613 0 
86 21 20.5363 22.8729 0 
87 21 19.1479 19.1216 0 
88 21 15.3966 20.5101 0 
89 24 34.1577 20.7581 0 
90 24 33.2256 24.648 0 
91 24 37.1155 25.5801 0 
92 24 38.0476 21.6903 0 
93 22 24.1314 21.7276 0 
94 22 21.7375 24.9322 0 
95 22 24.9421 27.3261 0 
96 22 27.336 24.1215 0 
97 28 12.3366 32.3158 0 
98 28 16.0536 30.838 0 
99 28 14.5758 27.121 0 
100 28 10.8588 28.5988 0 
101 29 18.5006 26.6427 0 
102 29 16.1812 29.9016 0 
103 29 19.4402 32.2209 0 
104 29 21.7595 28.962 0 
105 30 23.4485 27.4317 0 
106 30 21.4196 30.879 0 
107 30 24.8669 32.9078 0 
108 30 26.8958 29.4605 0 
109 32 32.2456 26.1891 0 
110 32 32.3149 30.1885 0 
111 32 36.3143 30.1192 0 
112 32 36.245 26.1198 0 
113 27 6.56884 29.9752 0 
114 27 6.83534 33.9663 0 
115 27 10.8265 33.6998 0 
116 27 10.56 29.7086 0 
117 31 27.8525 32.2927 0 
118 31 30.8515 34.9397 0 
119 31 33.4984 31.9407 0 
120 31 30.4994 29.2938 0 
121 26 1.98723 33.2055 0 
122 26 2.85957 37.1092 0 
123 26 6.76329 36.2369 0 
124 26 5.89095 32.3331 0 
125 25 33.8722 32.2152 0 
126 25 34.6673 36.1354 0 
127 25 38.5875 35.3403 0 
128 25 37.7924 31.4201 0 
