ITEM: TIMESTEP
8000
ITEM: NUMBER OF ENTRIES
128
ITEM: BOX BOUNDS pp pp pp
0 33.4495
0 33.4495
-0.5 0.5
ITEM: ENTRIES index c_1[1] c_1[2] c_1[3] c_1[4] 
1 5 20.6068 -1.07624 0 
2 5 17.0642 0.78114 0 
3 5 18.9216 4.32376 0 
4 5 22.4642 2.46638 0 
5 8 26.9536 0.364213 0 
6 8 28.4061 4.09119 0 
7 8 32.1331 2.63874 0 
8 8 30.6806 -1.08824 0 
9 2 -0.0146686 6.69713 0 
10 2 3.84952 7.73061 0 
11 2 4.88299 3.86642 0 
12 2 1.01881 2.83295 0 
13 3 13.977 5.00507 0 
14 3 11.5613 1.81695 0 
15 3 8.37316 4.2327 0 
16 3 10.7889 7.42083 0 
17 7 22.7671 1.98348 0 
18 7 24.2169 5.71151 0 
19 7 27.9449 4.26175 0 
20 7 26.4951 0.53372 0 
21 1 30.2489 3.88104 0 
22 1 26.5307 5.3557 0 
23 1 28.0054 9.07395 0 
24 1 31.7236 7.59928 0 
25 4 14.7531 4.50027 0 
26 4 14.5025 8.49241 0 
27 4 18.4946 8.74306 0 
28 4 18.7452 4.75092 0 
29 6 19.2324 4.69902 0 
30 6 18.9919 8.69179 0 
31 6 22.9847 8.93222 0 
32 6 23.2251 4.93946 0 
33 9 2.48472 9.6382 0 
34 9 4.46626 13.1129 0 
35 9 7.94096 11.1314 0 
36 9 5.95942 7.65666 0 
37 12 14.3549 8.95897 0 
38 12 14.1052 12.9512 0 
39 12 18.0974 13.2009 0 
40 12 18.3471 9.2087 0 
41 13 18.8128 9.16556 0 
42 13 18.5985 13.1598 0 
43 13 22.5928 13.3741 0 
44 13 22.8071 9.37986 0 
45 16 -1.3527 10.9385 0 
46 16 -1.28338 14.9379 0 
47 16 2.71602 14.8686 0 
48 16 2.6467 10.8692 0 
49 10 7.91839 11.6837 0 
50 10 7.11195 15.6016 0 
51 10 11.0298 16.408 0 
52 10 11.8362 12.4902 0 
53 11 12.2268 12.984 0 
54 11 11.4268 16.9032 0 
55 11 15.3459 17.7033 0 
56 11 16.146 13.7841 0 
57 14 23.1435 11.2074 0 
58 14 23.2009 15.207 0 
59 14 27.2005 15.1496 0 
60 14 27.1431 11.15 0 
61 15 27.6174 11.1256 0 
62 15 27.6887 15.1249 0 
63 15 31.6881 15.0536 0 
64 15 31.6168 11.0542 0 
65 20 16.676 13.645 0 
66 20 15.8727 17.5635 0 
67 20 19.7911 18.3668 0 
68 20 20.5945 14.4483 0 
69 17 2.06826 17.3028 0 
70 17 1.52143 21.2652 0 
71 17 5.48387 21.8121 0 
72 17 6.0307 17.8496 0 
73 18 7.01767 16.0777 0 
74 18 6.21968 19.9973 0 
75 18 10.1393 20.7953 0 
76 18 10.9373 16.8757 0 
77 21 18.4105 24.1757 0 
78 21 21.0322 21.1547 0 
79 21 18.0112 18.5329 0 
80 21 15.3895 21.5539 0 
81 23 27.4548 15.554 0 
82 23 25.2337 18.8807 0 
83 23 28.5604 21.1018 0 
84 23 30.7815 17.7751 0 
85 24 30.7264 18.7907 0 
86 24 30.3191 22.7699 0 
87 24 34.2983 23.1772 0 
88 24 34.7056 19.198 0 
89 19 13.931 19.6444 0 
90 19 10.2721 21.2609 0 
91 19 11.8886 24.9198 0 
92 19 15.5474 23.3033 0 
93 22 25.1495 20.159 0 
94 22 21.3749 21.4826 0 
95 22 22.6985 25.2573 0 
96 22 26.4732 23.9336 0 
97 28 10.9088 29.3285 0 
98 28 14.8836 29.777 0 
99 28 15.3321 25.8023 0 
100 28 11.3573 25.3538 0 
101 32 30.3723 23.2755 0 
102 32 29.9397 27.252 0 
103 32 33.9162 27.6846 0 
104 32 34.3488 23.7081 0 
105 27 5.69764 26.866 0 
106 27 6.66277 30.7478 0 
107 27 10.5446 29.7827 0 
108 27 9.57946 25.9008 0 
109 29 15.8057 25.9686 0 
110 29 15.3553 29.9431 0 
111 29 19.3298 30.3935 0 
112 29 19.7802 26.4189 0 
113 30 20.3811 25.4498 0 
114 30 19.9301 29.4243 0 
115 30 23.9046 29.8753 0 
116 30 24.3556 25.9008 0 
117 31 24.8307 27.0872 0 
118 31 26.5782 30.6853 0 
119 31 30.1763 28.9377 0 
120 31 28.4287 25.3397 0 
121 26 1.74965 29.7131 0 
122 26 2.82011 33.5672 0 
123 26 6.67421 32.4968 0 
124 26 5.60376 28.6427 0 
125 25 30.278 29.4113 0 
126 25 31.5368 33.208 0 
127 25 35.3335 31.9492 0 
128 25 34.0747 28.1525 0 
